 Entering Gaussian System, Link 0=g16
 Initial command:
 /opt/ebsofts/Gaussian/g16/l1.exe "/scratch/Gau-1695059.inp" -scrdir="/scratch/"
 Entering Link 1 = /opt/ebsofts/Gaussian/g16/l1.exe PID=   1695067.
  
 Copyright (c) 1988,1990,1992,1993,1995,1998,2003,2009,2016,
            Gaussian, Inc.  All Rights Reserved.
  
 This is part of the Gaussian(R) 16 program.  It is based on
 the Gaussian(R) 09 system (copyright 2009, Gaussian, Inc.),
 the Gaussian(R) 03 system (copyright 2003, Gaussian, Inc.),
 the Gaussian(R) 98 system (copyright 1998, Gaussian, Inc.),
 the Gaussian(R) 94 system (copyright 1995, Gaussian, Inc.),
 the Gaussian 92(TM) system (copyright 1992, Gaussian, Inc.),
 the Gaussian 90(TM) system (copyright 1990, Gaussian, Inc.),
 the Gaussian 88(TM) system (copyright 1988, Gaussian, Inc.),
 the Gaussian 86(TM) system (copyright 1986, Carnegie Mellon
 University), and the Gaussian 82(TM) system (copyright 1983,
 Carnegie Mellon University). Gaussian is a federally registered
 trademark of Gaussian, Inc.
  
 This software contains proprietary and confidential information,
 including trade secrets, belonging to Gaussian, Inc.
  
 This software is provided under written license and may be
 used, copied, transmitted, or stored only in accord with that
 written license.
  
 The following legend is applicable only to US Government
 contracts under FAR:
  
                    RESTRICTED RIGHTS LEGEND
  
 Use, reproduction and disclosure by the US Government is
 subject to restrictions as set forth in subparagraphs (a)
 and (c) of the Commercial Computer Software - Restricted
 Rights clause in FAR 52.227-19.
  
 Gaussian, Inc.
 340 Quinnipiac St., Bldg. 40, Wallingford CT 06492
  
  
 ---------------------------------------------------------------
 Warning -- This program may not be used in any manner that
 competes with the business of Gaussian, Inc. or will provide
 assistance to any competitor of Gaussian, Inc.  The licensee
 of this program is prohibited from giving any competitor of
 Gaussian, Inc. access to this program.  By using this program,
 the user acknowledges that Gaussian, Inc. is engaged in the
 business of creating and licensing software in the field of
 computational chemistry and represents and warrants to the
 licensee that it is not a competitor of Gaussian, Inc. and that
 it will not use this program in any manner prohibited above.
 ---------------------------------------------------------------
  

 Cite this work as:
 Gaussian 16, Revision A.03,
 M. J. Frisch, G. W. Trucks, H. B. Schlegel, G. E. Scuseria, 
 M. A. Robb, J. R. Cheeseman, G. Scalmani, V. Barone, 
 G. A. Petersson, H. Nakatsuji, X. Li, M. Caricato, A. V. Marenich, 
 J. Bloino, B. G. Janesko, R. Gomperts, B. Mennucci, H. P. Hratchian, 
 J. V. Ortiz, A. F. Izmaylov, J. L. Sonnenberg, D. Williams-Young, 
 F. Ding, F. Lipparini, F. Egidi, J. Goings, B. Peng, A. Petrone, 
 T. Henderson, D. Ranasinghe, V. G. Zakrzewski, J. Gao, N. Rega, 
 G. Zheng, W. Liang, M. Hada, M. Ehara, K. Toyota, R. Fukuda, 
 J. Hasegawa, M. Ishida, T. Nakajima, Y. Honda, O. Kitao, H. Nakai, 
 T. Vreven, K. Throssell, J. A. Montgomery, Jr., J. E. Peralta, 
 F. Ogliaro, M. J. Bearpark, J. J. Heyd, E. N. Brothers, K. N. Kudin, 
 V. N. Staroverov, T. A. Keith, R. Kobayashi, J. Normand, 
 K. Raghavachari, A. P. Rendell, J. C. Burant, S. S. Iyengar, 
 J. Tomasi, M. Cossi, J. M. Millam, M. Klene, C. Adamo, R. Cammi, 
 J. W. Ochterski, R. L. Martin, K. Morokuma, O. Farkas, 
 J. B. Foresman, and D. J. Fox, Gaussian, Inc., Wallingford CT, 2016.
 
 ******************************************
 Gaussian 16:  ES64L-G16RevA.03 25-Dec-2016
                 5-Feb-2024 
 ******************************************
 %Chk=G2.chk
 %nprocshared=8
 Will use up to    8 processors via shared memory.
 %mem=1GB
 --------------------------------
 # B3LYP/6-31G** opt=Modredundant
 --------------------------------
 1/18=120,19=15,26=3,38=1/1,3;
 2/9=110,12=2,17=6,18=5,40=1/2;
 3/5=1,6=6,7=101,11=2,25=1,30=1,71=1,74=-5/1,2,3;
 4//1;
 5/5=2,38=5/2;
 6/7=2,8=2,9=2,10=2,28=1/1;
 7//1,2,3,16;
 1/18=20,19=15,26=3/3(2);
 2/9=110/2;
 99//99;
 2/9=110/2;
 3/5=1,6=6,7=101,11=2,25=1,30=1,71=1,74=-5/1,2,3;
 4/5=5,16=3,69=1/1;
 5/5=2,38=5/2;
 7//1,2,3,16;
 1/18=20,19=15,26=3/3(-5);
 2/9=110/2;
 6/7=2,8=2,9=2,10=2,19=2,28=1/1;
 99/9=1/99;
 --
 G2
 --
 Symbolic Z-matrix:
 Charge =  1 Multiplicity = 1
 C                     8.2522    2.8753    1.4068 
 C                    -2.2791   -3.7057   -3.7568 
 C                     7.1996    3.6535    1.8885 
 C                     8.1131    2.181     0.205 
 C                    -2.3708   -3.343    -2.4131 
 C                    -1.1215   -3.4175   -4.4796 
 C                     6.0079    3.7375    1.1684 
 C                     6.9215    2.2649   -0.5151 
 C                    -1.3049   -2.6919   -1.7922 
 C                    -0.0556   -2.7664   -3.8587 
 C                     5.8688    3.0431   -0.0334 
 C                    -0.1472   -2.4036   -2.515 
 C                     1.9714   -2.5118   -1.23 
 C                     2.2494    0.216    -2.6352 
 C                     0.9436    0.2936   -0.4766 
 C                     2.3493    1.7348   -2.6204 
 C                     1.0519    1.812    -0.4747 
 C                     1.0059   -0.2794   -1.894 
 C                     2.8663   -4.813    -0.6418 
 C                     4.5864    3.1328   -0.8088 
 C                     1.7771   -4.0208   -1.349 
 C                     3.5623    2.0669   -0.4324 
 N                     0.9684   -1.7221   -1.8648 
 N                     2.289     2.2657   -1.2095 
 O                     2.9661   -2.0771   -0.644 
 H                     9.1805    2.8111    1.967 
 H                    -3.1086   -4.2135   -4.2404 
 H                     7.3081    4.1951    2.8237 
 H                     8.9328    1.5759   -0.1708 
 H                    -3.2716   -3.568    -1.8498 
 H                    -1.05     -3.701    -5.5257 
 H                     5.193     4.3461    1.5515 
 H                     6.8221    1.7204   -1.4504 
 H                    -1.3877   -2.4141   -0.7444 
 H                     0.8417   -2.5469   -4.4321 
 H                     2.202    -0.1273   -3.6724 
 H                     3.1526   -0.2192   -2.2021 
 H                     1.7342   -0.1355    0.1448 
 H                    -0.0063    0.0019   -0.0176 
 H                     3.2908    2.0905   -3.0695 
 H                     1.5082    2.1804   -3.1744 
 H                     0.1851    2.2583   -0.9873 
 H                     1.1017    2.223     0.5474 
 H                     0.1101    0.0292   -2.4467 
 H                     2.8915   -4.5586    0.4223 
 H                     3.8511   -4.5958   -1.0685 
 H                     2.6905   -5.8902   -0.7312 
 H                     4.1392    4.1199   -0.631 
 H                     4.789     3.0906   -1.887 
 H                     1.7777   -4.2971   -2.4088 
 H                     0.8119   -4.2865   -0.9049 
 H                     3.2923    2.1443    0.625 
 H                     3.9093    1.051    -0.6443 
 H                     2.1884    3.318    -1.308 
 
 The following ModRedundant input section has been read:
 D    *       *       *       *    F                                           
 

 GradGradGradGradGradGradGradGradGradGradGradGradGradGradGradGradGradGrad
 Berny optimization.
 Initialization pass.
                           ----------------------------
                           !    Initial Parameters    !
                           ! (Angstroms and Degrees)  !
 --------------------------                            --------------------------
 ! Name  Definition              Value          Derivative Info.                !
 --------------------------------------------------------------------------------
 ! R1    R(1,3)                  1.3948         estimate D2E/DX2                !
 ! R2    R(1,4)                  1.3949         estimate D2E/DX2                !
 ! R3    R(1,26)                 1.0861         estimate D2E/DX2                !
 ! R4    R(2,5)                  1.3948         estimate D2E/DX2                !
 ! R5    R(2,6)                  1.3948         estimate D2E/DX2                !
 ! R6    R(2,27)                 1.0862         estimate D2E/DX2                !
 ! R7    R(3,7)                  1.3949         estimate D2E/DX2                !
 ! R8    R(3,28)                 1.0861         estimate D2E/DX2                !
 ! R9    R(4,8)                  1.3948         estimate D2E/DX2                !
 ! R10   R(4,29)                 1.0859         estimate D2E/DX2                !
 ! R11   R(5,9)                  1.3948         estimate D2E/DX2                !
 ! R12   R(5,30)                 1.086          estimate D2E/DX2                !
 ! R13   R(6,10)                 1.3948         estimate D2E/DX2                !
 ! R14   R(6,31)                 1.0862         estimate D2E/DX2                !
 ! R15   R(7,11)                 1.3949         estimate D2E/DX2                !
 ! R16   R(7,32)                 1.0868         estimate D2E/DX2                !
 ! R17   R(8,11)                 1.3949         estimate D2E/DX2                !
 ! R18   R(8,33)                 1.0868         estimate D2E/DX2                !
 ! R19   R(9,12)                 1.3949         estimate D2E/DX2                !
 ! R20   R(9,34)                 1.0872         estimate D2E/DX2                !
 ! R21   R(10,12)                1.3948         estimate D2E/DX2                !
 ! R22   R(10,35)                1.0873         estimate D2E/DX2                !
 ! R23   R(11,20)                1.5013         estimate D2E/DX2                !
 ! R24   R(12,23)                1.4601         estimate D2E/DX2                !
 ! R25   R(13,21)                1.5261         estimate D2E/DX2                !
 ! R26   R(13,23)                1.4257         estimate D2E/DX2                !
 ! R27   R(13,25)                1.2336         estimate D2E/DX2                !
 ! R28   R(14,16)                1.5222         estimate D2E/DX2                !
 ! R29   R(14,18)                1.5301         estimate D2E/DX2                !
 ! R30   R(14,36)                1.0936         estimate D2E/DX2                !
 ! R31   R(14,37)                1.0921         estimate D2E/DX2                !
 ! R32   R(15,17)                1.5223         estimate D2E/DX2                !
 ! R33   R(15,18)                1.5301         estimate D2E/DX2                !
 ! R34   R(15,38)                1.0933         estimate D2E/DX2                !
 ! R35   R(15,39)                1.0946         estimate D2E/DX2                !
 ! R36   R(16,24)                1.5087         estimate D2E/DX2                !
 ! R37   R(16,40)                1.1021         estimate D2E/DX2                !
 ! R38   R(16,41)                1.1013         estimate D2E/DX2                !
 ! R39   R(17,24)                1.5087         estimate D2E/DX2                !
 ! R40   R(17,42)                1.1015         estimate D2E/DX2                !
 ! R41   R(17,43)                1.1028         estimate D2E/DX2                !
 ! R42   R(18,23)                1.4435         estimate D2E/DX2                !
 ! R43   R(18,44)                1.0969         estimate D2E/DX2                !
 ! R44   R(19,21)                1.5212         estimate D2E/DX2                !
 ! R45   R(19,45)                1.0944         estimate D2E/DX2                !
 ! R46   R(19,46)                1.095          estimate D2E/DX2                !
 ! R47   R(19,47)                1.0951         estimate D2E/DX2                !
 ! R48   R(20,22)                1.5253         estimate D2E/DX2                !
 ! R49   R(20,48)                1.0982         estimate D2E/DX2                !
 ! R50   R(20,49)                1.0979         estimate D2E/DX2                !
 ! R51   R(21,50)                1.0952         estimate D2E/DX2                !
 ! R52   R(21,51)                1.0952         estimate D2E/DX2                !
 ! R53   R(22,24)                1.5049         estimate D2E/DX2                !
 ! R54   R(22,52)                1.0941         estimate D2E/DX2                !
 ! R55   R(22,53)                1.0942         estimate D2E/DX2                !
 ! R56   R(24,54)                1.0617         estimate D2E/DX2                !
 ! A1    A(3,1,4)              119.9988         estimate D2E/DX2                !
 ! A2    A(3,1,26)             119.9889         estimate D2E/DX2                !
 ! A3    A(4,1,26)             120.0123         estimate D2E/DX2                !
 ! A4    A(5,2,6)              120.0031         estimate D2E/DX2                !
 ! A5    A(5,2,27)             120.0182         estimate D2E/DX2                !
 ! A6    A(6,2,27)             119.9787         estimate D2E/DX2                !
 ! A7    A(1,3,7)              120.0015         estimate D2E/DX2                !
 ! A8    A(1,3,28)             120.011          estimate D2E/DX2                !
 ! A9    A(7,3,28)             119.9875         estimate D2E/DX2                !
 ! A10   A(1,4,8)              120.0038         estimate D2E/DX2                !
 ! A11   A(1,4,29)             120.0152         estimate D2E/DX2                !
 ! A12   A(8,4,29)             119.981          estimate D2E/DX2                !
 ! A13   A(2,5,9)              119.9981         estimate D2E/DX2                !
 ! A14   A(2,5,30)             120.0231         estimate D2E/DX2                !
 ! A15   A(9,5,30)             119.9788         estimate D2E/DX2                !
 ! A16   A(2,6,10)             119.9988         estimate D2E/DX2                !
 ! A17   A(2,6,31)             119.9852         estimate D2E/DX2                !
 ! A18   A(10,6,31)            120.0159         estimate D2E/DX2                !
 ! A19   A(3,7,11)             119.9983         estimate D2E/DX2                !
 ! A20   A(3,7,32)             119.4929         estimate D2E/DX2                !
 ! A21   A(11,7,32)            120.5088         estimate D2E/DX2                !
 ! A22   A(4,8,11)             119.9997         estimate D2E/DX2                !
 ! A23   A(4,8,33)             119.4919         estimate D2E/DX2                !
 ! A24   A(11,8,33)            120.5085         estimate D2E/DX2                !
 ! A25   A(5,9,12)             120.0022         estimate D2E/DX2                !
 ! A26   A(5,9,34)             119.3472         estimate D2E/DX2                !
 ! A27   A(12,9,34)            120.6506         estimate D2E/DX2                !
 ! A28   A(6,10,12)            120.0035         estimate D2E/DX2                !
 ! A29   A(6,10,35)            119.35           estimate D2E/DX2                !
 ! A30   A(12,10,35)           120.6465         estimate D2E/DX2                !
 ! A31   A(7,11,8)             119.998          estimate D2E/DX2                !
 ! A32   A(7,11,20)            120.0275         estimate D2E/DX2                !
 ! A33   A(8,11,20)            119.9745         estimate D2E/DX2                !
 ! A34   A(9,12,10)            119.9944         estimate D2E/DX2                !
 ! A35   A(9,12,23)            119.9904         estimate D2E/DX2                !
 ! A36   A(10,12,23)           120.0152         estimate D2E/DX2                !
 ! A37   A(21,13,23)           115.0499         estimate D2E/DX2                !
 ! A38   A(21,13,25)           119.218          estimate D2E/DX2                !
 ! A39   A(23,13,25)           125.7037         estimate D2E/DX2                !
 ! A40   A(16,14,18)           111.8201         estimate D2E/DX2                !
 ! A41   A(16,14,36)           108.9839         estimate D2E/DX2                !
 ! A42   A(16,14,37)           109.845          estimate D2E/DX2                !
 ! A43   A(18,14,36)           108.8194         estimate D2E/DX2                !
 ! A44   A(18,14,37)           110.548          estimate D2E/DX2                !
 ! A45   A(36,14,37)           106.671          estimate D2E/DX2                !
 ! A46   A(17,15,18)           111.8263         estimate D2E/DX2                !
 ! A47   A(17,15,38)           109.836          estimate D2E/DX2                !
 ! A48   A(17,15,39)           109.0892         estimate D2E/DX2                !
 ! A49   A(18,15,38)           110.4924         estimate D2E/DX2                !
 ! A50   A(18,15,39)           108.9044         estimate D2E/DX2                !
 ! A51   A(38,15,39)           106.536          estimate D2E/DX2                !
 ! A52   A(14,16,24)           110.9523         estimate D2E/DX2                !
 ! A53   A(14,16,40)           111.9711         estimate D2E/DX2                !
 ! A54   A(14,16,41)           110.4076         estimate D2E/DX2                !
 ! A55   A(24,16,40)           107.5569         estimate D2E/DX2                !
 ! A56   A(24,16,41)           107.3089         estimate D2E/DX2                !
 ! A57   A(40,16,41)           108.4729         estimate D2E/DX2                !
 ! A58   A(15,17,24)           110.9583         estimate D2E/DX2                !
 ! A59   A(15,17,42)           110.3396         estimate D2E/DX2                !
 ! A60   A(15,17,43)           112.0938         estimate D2E/DX2                !
 ! A61   A(24,17,42)           107.2635         estimate D2E/DX2                !
 ! A62   A(24,17,43)           107.5962         estimate D2E/DX2                !
 ! A63   A(42,17,43)           108.4125         estimate D2E/DX2                !
 ! A64   A(14,18,15)           111.136          estimate D2E/DX2                !
 ! A65   A(14,18,23)           110.7637         estimate D2E/DX2                !
 ! A66   A(14,18,44)           109.1799         estimate D2E/DX2                !
 ! A67   A(15,18,23)           110.7618         estimate D2E/DX2                !
 ! A68   A(15,18,44)           109.1568         estimate D2E/DX2                !
 ! A69   A(23,18,44)           105.6741         estimate D2E/DX2                !
 ! A70   A(21,19,45)           110.3321         estimate D2E/DX2                !
 ! A71   A(21,19,46)           111.0686         estimate D2E/DX2                !
 ! A72   A(21,19,47)           111.0609         estimate D2E/DX2                !
 ! A73   A(45,19,46)           108.1842         estimate D2E/DX2                !
 ! A74   A(45,19,47)           108.1637         estimate D2E/DX2                !
 ! A75   A(46,19,47)           107.9189         estimate D2E/DX2                !
 ! A76   A(11,20,22)           113.8477         estimate D2E/DX2                !
 ! A77   A(11,20,48)           108.5381         estimate D2E/DX2                !
 ! A78   A(11,20,49)           110.3225         estimate D2E/DX2                !
 ! A79   A(22,20,48)           108.3466         estimate D2E/DX2                !
 ! A80   A(22,20,49)           109.8392         estimate D2E/DX2                !
 ! A81   A(48,20,49)           105.5871         estimate D2E/DX2                !
 ! A82   A(13,21,19)           112.8004         estimate D2E/DX2                !
 ! A83   A(13,21,50)           108.9555         estimate D2E/DX2                !
 ! A84   A(13,21,51)           108.6917         estimate D2E/DX2                !
 ! A85   A(19,21,50)           108.5472         estimate D2E/DX2                !
 ! A86   A(19,21,51)           108.4315         estimate D2E/DX2                !
 ! A87   A(50,21,51)           109.3698         estimate D2E/DX2                !
 ! A88   A(20,22,24)           110.3856         estimate D2E/DX2                !
 ! A89   A(20,22,52)           110.7782         estimate D2E/DX2                !
 ! A90   A(20,22,53)           112.8349         estimate D2E/DX2                !
 ! A91   A(24,22,52)           106.3153         estimate D2E/DX2                !
 ! A92   A(24,22,53)           106.9155         estimate D2E/DX2                !
 ! A93   A(52,22,53)           109.3355         estimate D2E/DX2                !
 ! A94   A(12,23,13)           118.5082         estimate D2E/DX2                !
 ! A95   A(12,23,18)           118.5125         estimate D2E/DX2                !
 ! A96   A(13,23,18)           122.9793         estimate D2E/DX2                !
 ! A97   A(16,24,17)           112.4839         estimate D2E/DX2                !
 ! A98   A(16,24,22)           113.7414         estimate D2E/DX2                !
 ! A99   A(16,24,54)           105.4151         estimate D2E/DX2                !
 ! A100  A(17,24,22)           113.7384         estimate D2E/DX2                !
 ! A101  A(17,24,54)           105.3999         estimate D2E/DX2                !
 ! A102  A(22,24,54)           105.0118         estimate D2E/DX2                !
 ! D1    D(4,1,3,7)             -0.0037         Frozen                          !
 ! D2    D(4,1,3,28)          -179.9309         Frozen                          !
 ! D3    D(26,1,3,7)           179.9183         Frozen                          !
 ! D4    D(26,1,3,28)           -0.0089         Frozen                          !
 ! D5    D(3,1,4,8)              0.0017         Frozen                          !
 ! D6    D(3,1,4,29)           179.9353         Frozen                          !
 ! D7    D(26,1,4,8)          -179.9203         Frozen                          !
 ! D8    D(26,1,4,29)            0.0133         Frozen                          !
 ! D9    D(6,2,5,9)              0.0084         Frozen                          !
 ! D10   D(6,2,5,30)          -179.9468         Frozen                          !
 ! D11   D(27,2,5,9)           179.9471         Frozen                          !
 ! D12   D(27,2,5,30)           -0.0081         Frozen                          !
 ! D13   D(5,2,6,10)            -0.0084         Frozen                          !
 ! D14   D(5,2,6,31)           179.9366         Frozen                          !
 ! D15   D(27,2,6,10)         -179.9471         Frozen                          !
 ! D16   D(27,2,6,31)           -0.0022         Frozen                          !
 ! D17   D(1,3,7,11)             0.0075         Frozen                          !
 ! D18   D(1,3,7,32)           179.9868         Frozen                          !
 ! D19   D(28,3,7,11)          179.9346         Frozen                          !
 ! D20   D(28,3,7,32)           -0.0861         Frozen                          !
 ! D21   D(1,4,8,11)            -0.0034         Frozen                          !
 ! D22   D(1,4,8,33)          -179.992          Frozen                          !
 ! D23   D(29,4,8,11)         -179.937          Frozen                          !
 ! D24   D(29,4,8,33)            0.0744         Frozen                          !
 ! D25   D(2,5,9,12)            -0.006          Frozen                          !
 ! D26   D(2,5,9,34)          -179.9946         Frozen                          !
 ! D27   D(30,5,9,12)          179.9492         Frozen                          !
 ! D28   D(30,5,9,34)           -0.0393         Frozen                          !
 ! D29   D(2,6,10,12)            0.006          Frozen                          !
 ! D30   D(2,6,10,35)         -179.9977         Frozen                          !
 ! D31   D(31,6,10,12)        -179.9389         Frozen                          !
 ! D32   D(31,6,10,35)           0.0573         Frozen                          !
 ! D33   D(3,7,11,8)            -0.0092         Frozen                          !
 ! D34   D(3,7,11,20)          179.9867         Frozen                          !
 ! D35   D(32,7,11,8)         -179.9883         Frozen                          !
 ! D36   D(32,7,11,20)           0.0076         Frozen                          !
 ! D37   D(4,8,11,7)             0.0071         Frozen                          !
 ! D38   D(4,8,11,20)         -179.9887         Frozen                          !
 ! D39   D(33,8,11,7)          179.9956         Frozen                          !
 ! D40   D(33,8,11,20)          -0.0003         Frozen                          !
 ! D41   D(5,9,12,10)            0.0037         Frozen                          !
 ! D42   D(5,9,12,23)         -179.9974         Frozen                          !
 ! D43   D(34,9,12,10)         179.992          Frozen                          !
 ! D44   D(34,9,12,23)          -0.0091         Frozen                          !
 ! D45   D(6,10,12,9)           -0.0037         Frozen                          !
 ! D46   D(6,10,12,23)         179.9975         Frozen                          !
 ! D47   D(35,10,12,9)        -179.9998         Frozen                          !
 ! D48   D(35,10,12,23)          0.0013         Frozen                          !
 ! D49   D(7,11,20,22)         -89.9922         Frozen                          !
 ! D50   D(7,11,20,48)          30.7526         Frozen                          !
 ! D51   D(7,11,20,49)         145.9929         Frozen                          !
 ! D52   D(8,11,20,22)          90.0037         Frozen                          !
 ! D53   D(8,11,20,48)        -149.2515         Frozen                          !
 ! D54   D(8,11,20,49)         -34.0112         Frozen                          !
 ! D55   D(9,12,23,13)          90.0079         Frozen                          !
 ! D56   D(9,12,23,18)         -90.0001         Frozen                          !
 ! D57   D(10,12,23,13)        -89.9932         Frozen                          !
 ! D58   D(10,12,23,18)         89.9988         Frozen                          !
 ! D59   D(23,13,21,19)       -179.378          Frozen                          !
 ! D60   D(23,13,21,50)         60.0106         Frozen                          !
 ! D61   D(23,13,21,51)        -59.0941         Frozen                          !
 ! D62   D(25,13,21,19)          2.4511         Frozen                          !
 ! D63   D(25,13,21,50)       -118.1603         Frozen                          !
 ! D64   D(25,13,21,51)        122.735          Frozen                          !
 ! D65   D(21,13,23,12)          1.9694         Frozen                          !
 ! D66   D(21,13,23,18)       -178.0222         Frozen                          !
 ! D67   D(25,13,23,12)       -179.9966         Frozen                          !
 ! D68   D(25,13,23,18)          0.0118         Frozen                          !
 ! D69   D(18,14,16,24)         54.416          Frozen                          !
 ! D70   D(18,14,16,40)        174.6006         Frozen                          !
 ! D71   D(18,14,16,41)        -64.4252         Frozen                          !
 ! D72   D(36,14,16,24)        174.7608         Frozen                          !
 ! D73   D(36,14,16,40)        -65.0545         Frozen                          !
 ! D74   D(36,14,16,41)         55.9196         Frozen                          !
 ! D75   D(37,14,16,24)        -68.7079         Frozen                          !
 ! D76   D(37,14,16,40)         51.4768         Frozen                          !
 ! D77   D(37,14,16,41)        172.4509         Frozen                          !
 ! D78   D(16,14,18,15)        -53.5855         Frozen                          !
 ! D79   D(16,14,18,23)       -177.1601         Frozen                          !
 ! D80   D(16,14,18,44)         66.8768         Frozen                          !
 ! D81   D(36,14,18,15)       -174.0264         Frozen                          !
 ! D82   D(36,14,18,23)         62.3991         Frozen                          !
 ! D83   D(36,14,18,44)        -53.5641         Frozen                          !
 ! D84   D(37,14,18,15)         69.1389         Frozen                          !
 ! D85   D(37,14,18,23)        -54.4356         Frozen                          !
 ! D86   D(37,14,18,44)       -170.3988         Frozen                          !
 ! D87   D(18,15,17,24)        -54.3773         Frozen                          !
 ! D88   D(18,15,17,42)         64.3676         Frozen                          !
 ! D89   D(18,15,17,43)       -174.6995         Frozen                          !
 ! D90   D(38,15,17,24)         68.6731         Frozen                          !
 ! D91   D(38,15,17,42)       -172.582          Frozen                          !
 ! D92   D(38,15,17,43)        -51.6491         Frozen                          !
 ! D93   D(39,15,17,24)       -174.9026         Frozen                          !
 ! D94   D(39,15,17,42)        -56.1577         Frozen                          !
 ! D95   D(39,15,17,43)         64.7752         Frozen                          !
 ! D96   D(17,15,18,14)         53.566          Frozen                          !
 ! D97   D(17,15,18,23)        177.1416         Frozen                          !
 ! D98   D(17,15,18,44)        -66.9101         Frozen                          !
 ! D99   D(38,15,18,14)        -69.1114         Frozen                          !
 ! D100  D(38,15,18,23)         54.4642         Frozen                          !
 ! D101  D(38,15,18,44)        170.4126         Frozen                          !
 ! D102  D(39,15,18,14)        174.199          Frozen                          !
 ! D103  D(39,15,18,23)        -62.2254         Frozen                          !
 ! D104  D(39,15,18,44)         53.723          Frozen                          !
 ! D105  D(14,16,24,17)        -55.7299         Frozen                          !
 ! D106  D(14,16,24,22)         75.4174         Frozen                          !
 ! D107  D(14,16,24,54)       -170.0759         Frozen                          !
 ! D108  D(40,16,24,17)       -178.5057         Frozen                          !
 ! D109  D(40,16,24,22)        -47.3583         Frozen                          !
 ! D110  D(40,16,24,54)         67.1483         Frozen                          !
 ! D111  D(41,16,24,17)         64.9622         Frozen                          !
 ! D112  D(41,16,24,22)       -163.8905         Frozen                          !
 ! D113  D(41,16,24,54)        -49.3838         Frozen                          !
 ! D114  D(15,17,24,16)         55.7102         Frozen                          !
 ! D115  D(15,17,24,22)        -75.4386         Frozen                          !
 ! D116  D(15,17,24,54)        170.0655         Frozen                          !
 ! D117  D(42,17,24,16)        -64.8738         Frozen                          !
 ! D118  D(42,17,24,22)        163.9774         Frozen                          !
 ! D119  D(42,17,24,54)         49.4815         Frozen                          !
 ! D120  D(43,17,24,16)        178.6677         Frozen                          !
 ! D121  D(43,17,24,22)         47.5189         Frozen                          !
 ! D122  D(43,17,24,54)        -66.977          Frozen                          !
 ! D123  D(14,18,23,12)       -118.1116         Frozen                          !
 ! D124  D(14,18,23,13)         61.88           Frozen                          !
 ! D125  D(15,18,23,12)        118.0989         Frozen                          !
 ! D126  D(15,18,23,13)        -61.9095         Frozen                          !
 ! D127  D(44,18,23,12)          0.0079         Frozen                          !
 ! D128  D(44,18,23,13)        179.9995         Frozen                          !
 ! D129  D(45,19,21,13)         59.1511         Frozen                          !
 ! D130  D(45,19,21,50)        179.9957         Frozen                          !
 ! D131  D(45,19,21,51)        -61.282          Frozen                          !
 ! D132  D(46,19,21,13)        -60.8091         Frozen                          !
 ! D133  D(46,19,21,50)         60.0355         Frozen                          !
 ! D134  D(46,19,21,51)        178.7578         Frozen                          !
 ! D135  D(47,19,21,13)        179.0808         Frozen                          !
 ! D136  D(47,19,21,50)        -60.0746         Frozen                          !
 ! D137  D(47,19,21,51)         58.6477         Frozen                          !
 ! D138  D(11,20,22,24)        177.4858         Frozen                          !
 ! D139  D(11,20,22,52)         59.9992         Frozen                          !
 ! D140  D(11,20,22,53)        -62.9582         Frozen                          !
 ! D141  D(48,20,22,24)         56.6339         Frozen                          !
 ! D142  D(48,20,22,52)        -60.8527         Frozen                          !
 ! D143  D(48,20,22,53)        176.1898         Frozen                          !
 ! D144  D(49,20,22,24)        -58.2387         Frozen                          !
 ! D145  D(49,20,22,52)       -175.7253         Frozen                          !
 ! D146  D(49,20,22,53)         61.3172         Frozen                          !
 ! D147  D(20,22,24,16)         79.8            Frozen                          !
 ! D148  D(20,22,24,17)       -149.6721         Frozen                          !
 ! D149  D(20,22,24,54)        -34.9459         Frozen                          !
 ! D150  D(52,22,24,16)       -159.9941         Frozen                          !
 ! D151  D(52,22,24,17)        -29.4662         Frozen                          !
 ! D152  D(52,22,24,54)         85.26           Frozen                          !
 ! D153  D(53,22,24,16)        -43.2753         Frozen                          !
 ! D154  D(53,22,24,17)         87.2526         Frozen                          !
 ! D155  D(53,22,24,54)       -158.0213         Frozen                          !
 --------------------------------------------------------------------------------
 Trust Radius=3.00D-01 FncErr=1.00D-07 GrdErr=1.00D-06 EigMax=2.50D+02 EigMin=1.00D-04
 Number of steps in this run=    323 maximum allowed number of steps=    324.
 GradGradGradGradGradGradGradGradGradGradGradGradGradGradGradGradGradGrad

 Stoichiometry    C22H29N2O(1+)
 Framework group  C1[X(C22H29N2O)]
 Deg. of freedom   156
 Full point group                 C1      NOp   1
 Largest Abelian subgroup         C1      NOp   1
 Largest concise Abelian subgroup C1      NOp   1
                         Standard orientation:                         
 ---------------------------------------------------------------------
 Center     Atomic      Atomic             Coordinates (Angstroms)
 Number     Number       Type             X           Y           Z
 ---------------------------------------------------------------------
      1          6           0        6.827058    1.544536   -0.061138
      2          6           0       -6.438122   -0.640373    0.315420
      3          6           0        6.720499    0.451979   -0.921696
      4          6           0        5.906578    1.709466    0.973870
      5          6           0       -5.843175   -0.643845   -0.946133
      6          6           0       -5.668248   -0.379607    1.448925
      7          6           0        5.693524   -0.475727   -0.747246
      8          6           0        4.879612    0.781895    1.148359
      9          6           0       -4.478230   -0.386708   -1.074180
     10          6           0       -4.303303   -0.122470    1.320878
     11          6           0        4.772982   -0.310719    0.287760
     12          6           0       -3.708223   -0.125962    0.059367
     13          6           0       -1.855211    1.492388   -0.254778
     14          6           0       -0.406147   -0.824877    1.167634
     15          6           0       -0.589591   -1.101191   -1.334503
     16          6           0        0.618821   -1.949460    1.208942
     17          6           0        0.436937   -2.223830   -1.277999
     18          6           0       -1.360640   -0.968659   -0.019531
     19          6           0       -2.467421    3.947871   -0.450104
     20          6           0        3.667251   -1.308613    0.475932
     21          6           0       -2.974777    2.529366   -0.239151
     22          6           0        2.394513   -0.971333   -0.294119
     23          7           0       -2.279496    0.143219   -0.074969
     24          7           0        1.362885   -2.049588   -0.099673
     25          8           0       -0.687380    1.868949   -0.381899
     26          1           0        7.627575    2.266047   -0.196344
     27          1           0       -7.501164   -0.839721    0.415428
     28          1           0        7.437792    0.322754   -1.726987
     29          1           0        5.989911    2.559400    1.644651
     30          1           0       -6.442447   -0.845981   -1.828962
     31          1           0       -6.132056   -0.375959    2.431105
     32          1           0        5.618146   -1.323833   -1.422714
     33          1           0        4.166943    0.918583    1.957412
     34          1           0       -4.025469   -0.391972   -2.062559
     35          1           0       -3.713215    0.079453    2.211461
     36          1           0       -0.988981   -0.840599    2.092806
     37          1           0        0.103669    0.140400    1.134878
     38          1           0       -0.095266   -0.158744   -1.585001
     39          1           0       -1.299098   -1.305238   -2.142614
     40          1           0        1.365548   -1.797745    2.005194
     41          1           0        0.120650   -2.917107    1.377493
     42          1           0       -0.065711   -3.196537   -1.157711
     43          1           0        1.058915   -2.263312   -2.187765
     44          1           0       -1.982896   -1.860440    0.124321
     45          1           0       -1.947249    4.026897   -1.409708
     46          1           0       -1.769242    4.238094    0.341980
     47          1           0       -3.294433    4.665721   -0.449957
     48          1           0        4.023585   -2.291883    0.141007
     49          1           0        3.437088   -1.426010    1.542977
     50          1           0       -3.488907    2.483308    0.726803
     51          1           0       -3.683719    2.292556   -1.039622
     52          1           0        2.592051   -0.925245   -1.369219
     53          1           0        1.937948   -0.031531    0.030975
     54          1           0        1.917230   -2.953126   -0.040696
 ---------------------------------------------------------------------
 Rotational constants (GHZ):           0.4733943           0.0885172           0.0809216
 Standard basis: 6-31G(d,p) (6D, 7F)
 There are   520 symmetry adapted cartesian basis functions of A   symmetry.
 There are   520 symmetry adapted basis functions of A   symmetry.
   520 basis functions,   903 primitive gaussians,   520 cartesian basis functions
    91 alpha electrons       91 beta electrons
       nuclear repulsion energy      2136.3647685926 Hartrees.
 NAtoms=   54 NActive=   54 NUniq=   54 SFac= 1.00D+00 NAtFMM=   60 NAOKFM=F Big=F
 Integral buffers will be    131072 words long.
 Raffenetti 2 integral format.
 Two-electron integral symmetry is turned on.
 One-electron integrals computed using PRISM.
 NBasis=   520 RedAO= T EigKep=  4.41D-04  NBF=   520
 NBsUse=   520 1.00D-06 EigRej= -1.00D+00 NBFU=   520
 ExpMin= 1.61D-01 ExpMax= 5.48D+03 ExpMxC= 8.25D+02 IAcc=3 IRadAn=         5 AccDes= 0.00D+00
 Harris functional with IExCor=  402 and IRadAn=       5 diagonalized for initial guess.
 HarFok:  IExCor=  402 AccDes= 0.00D+00 IRadAn=         5 IDoV= 1 UseB2=F ITyADJ=14
 ICtDFT=  3500011 ScaDFX=  1.000000  1.000000  1.000000  1.000000
 FoFCou: FMM=F IPFlag=           0 FMFlag=      100000 FMFlg1=           0
         NFxFlg=           0 DoJE=T BraDBF=F KetDBF=T FulRan=T
         wScrn=  0.000000 ICntrl=       500 IOpCl=  0 I1Cent=   200000004 NGrid=           0
         NMat0=    1 NMatS0=      1 NMatT0=    0 NMatD0=    1 NMtDS0=    0 NMtDT0=    0
 Petite list used in FoFCou.
 Requested convergence on RMS density matrix=1.00D-08 within 128 cycles.
 Requested convergence on MAX density matrix=1.00D-06.
 Requested convergence on             energy=1.00D-06.
 No special actions if energy rises.
 Integral accuracy reduced to 1.0D-05 until final iterations.
 Initial convergence to 1.0D-05 achieved.  Increase integral accuracy.
 SCF Done:  E(RB3LYP) =  -1040.37484424     A.U. after   15 cycles
            NFock= 15  Conv=0.38D-08     -V/T= 2.0098

 **********************************************************************

            Population analysis using the SCF density.

 **********************************************************************

 Orbital symmetries:
       Occupied  (A) (A) (A) (A) (A) (A) (A) (A) (A) (A) (A) (A)
                 (A) (A) (A) (A) (A) (A) (A) (A) (A) (A) (A) (A)
                 (A) (A) (A) (A) (A) (A) (A) (A) (A) (A) (A) (A)
                 (A) (A) (A) (A) (A) (A) (A) (A) (A) (A) (A) (A)
                 (A) (A) (A) (A) (A) (A) (A) (A) (A) (A) (A) (A)
                 (A) (A) (A) (A) (A) (A) (A) (A) (A) (A) (A) (A)
                 (A) (A) (A) (A) (A) (A) (A) (A) (A) (A) (A) (A)
                 (A) (A) (A) (A) (A) (A) (A)
       Virtual   (A) (A) (A) (A) (A) (A) (A) (A) (A) (A) (A) (A)
                 (A) (A) (A) (A) (A) (A) (A) (A) (A) (A) (A) (A)
                 (A) (A) (A) (A) (A) (A) (A) (A) (A) (A) (A) (A)
                 (A) (A) (A) (A) (A) (A) (A) (A) (A) (A) (A) (A)
                 (A) (A) (A) (A) (A) (A) (A) (A) (A) (A) (A) (A)
                 (A) (A) (A) (A) (A) (A) (A) (A) (A) (A) (A) (A)
                 (A) (A) (A) (A) (A) (A) (A) (A) (A) (A) (A) (A)
                 (A) (A) (A) (A) (A) (A) (A) (A) (A) (A) (A) (A)
                 (A) (A) (A) (A) (A) (A) (A) (A) (A) (A) (A) (A)
                 (A) (A) (A) (A) (A) (A) (A) (A) (A) (A) (A) (A)
                 (A) (A) (A) (A) (A) (A) (A) (A) (A) (A) (A) (A)
                 (A) (A) (A) (A) (A) (A) (A) (A) (A) (A) (A) (A)
                 (A) (A) (A) (A) (A) (A) (A) (A) (A) (A) (A) (A)
                 (A) (A) (A) (A) (A) (A) (A) (A) (A) (A) (A) (A)
                 (A) (A) (A) (A) (A) (A) (A) (A) (A) (A) (A) (A)
                 (A) (A) (A) (A) (A) (A) (A) (A) (A) (A) (A) (A)
                 (A) (A) (A) (A) (A) (A) (A) (A) (A) (A) (A) (A)
                 (A) (A) (A) (A) (A) (A) (A) (A) (A) (A) (A) (A)
                 (A) (A) (A) (A) (A) (A) (A) (A) (A) (A) (A) (A)
                 (A) (A) (A) (A) (A) (A) (A) (A) (A) (A) (A) (A)
                 (A) (A) (A) (A) (A) (A) (A) (A) (A) (A) (A) (A)
                 (A) (A) (A) (A) (A) (A) (A) (A) (A) (A) (A) (A)
                 (A) (A) (A) (A) (A) (A) (A) (A) (A) (A) (A) (A)
                 (A) (A) (A) (A) (A) (A) (A) (A) (A) (A) (A) (A)
                 (A) (A) (A) (A) (A) (A) (A) (A) (A) (A) (A) (A)
                 (A) (A) (A) (A) (A) (A) (A) (A) (A) (A) (A) (A)
                 (A) (A) (A) (A) (A) (A) (A) (A) (A) (A) (A) (A)
                 (A) (A) (A) (A) (A) (A) (A) (A) (A) (A) (A) (A)
                 (A) (A) (A) (A) (A) (A) (A) (A) (A) (A) (A) (A)
                 (A) (A) (A) (A) (A) (A) (A) (A) (A) (A) (A) (A)
                 (A) (A) (A) (A) (A) (A) (A) (A) (A) (A) (A) (A)
                 (A) (A) (A) (A) (A) (A) (A) (A) (A) (A) (A) (A)
                 (A) (A) (A) (A) (A) (A) (A) (A) (A) (A) (A) (A)
                 (A) (A) (A) (A) (A) (A) (A) (A) (A) (A) (A) (A)
                 (A) (A) (A) (A) (A) (A) (A) (A) (A) (A) (A) (A)
                 (A) (A) (A) (A) (A) (A) (A) (A) (A)
 The electronic state is 1-A.
 Alpha  occ. eigenvalues --  -19.22098 -14.61008 -14.47062 -10.39309 -10.39289
 Alpha  occ. eigenvalues --  -10.39009 -10.38352 -10.35849 -10.33158 -10.32758
 Alpha  occ. eigenvalues --  -10.32543 -10.32431 -10.30107 -10.29042 -10.29031
 Alpha  occ. eigenvalues --  -10.28711 -10.28649 -10.28616 -10.28608 -10.28386
 Alpha  occ. eigenvalues --  -10.28125 -10.28093 -10.27890 -10.27396 -10.24626
 Alpha  occ. eigenvalues --   -1.16323  -1.13009  -1.04921  -0.96691  -0.95507
 Alpha  occ. eigenvalues --   -0.93677  -0.92985  -0.91167  -0.85980  -0.84979
 Alpha  occ. eigenvalues --   -0.84399  -0.83889  -0.83592  -0.80208  -0.79840
 Alpha  occ. eigenvalues --   -0.78369  -0.73861  -0.71356  -0.70497  -0.70360
 Alpha  occ. eigenvalues --   -0.70319  -0.70191  -0.68005  -0.66048  -0.64872
 Alpha  occ. eigenvalues --   -0.63550  -0.62835  -0.60601  -0.59296  -0.59072
 Alpha  occ. eigenvalues --   -0.58854  -0.57566  -0.57125  -0.56561  -0.55437
 Alpha  occ. eigenvalues --   -0.54790  -0.54449  -0.54248  -0.54104  -0.53798
 Alpha  occ. eigenvalues --   -0.53371  -0.51734  -0.51610  -0.51392  -0.50862
 Alpha  occ. eigenvalues --   -0.50649  -0.49834  -0.49385  -0.48815  -0.47576
 Alpha  occ. eigenvalues --   -0.46221  -0.45936  -0.45335  -0.45026  -0.44778
 Alpha  occ. eigenvalues --   -0.44347  -0.43822  -0.43557  -0.42932  -0.42281
 Alpha  occ. eigenvalues --   -0.35777  -0.35230  -0.34867  -0.34396  -0.34254
 Alpha  occ. eigenvalues --   -0.34000
 Alpha virt. eigenvalues --   -0.11733  -0.10415  -0.10147  -0.09884  -0.09589
 Alpha virt. eigenvalues --   -0.08117  -0.06067  -0.04834  -0.04052  -0.03234
 Alpha virt. eigenvalues --   -0.02256  -0.01683  -0.00888  -0.00195   0.00129
 Alpha virt. eigenvalues --    0.00954   0.01521   0.02287   0.03386   0.03511
 Alpha virt. eigenvalues --    0.03851   0.04080   0.04757   0.05755   0.05832
 Alpha virt. eigenvalues --    0.06297   0.06489   0.06914   0.07372   0.08043
 Alpha virt. eigenvalues --    0.08384   0.08614   0.08795   0.08888   0.09779
 Alpha virt. eigenvalues --    0.10204   0.10455   0.10862   0.11175   0.11728
 Alpha virt. eigenvalues --    0.11824   0.12381   0.12675   0.13478   0.14944
 Alpha virt. eigenvalues --    0.15277   0.15674   0.17000   0.18829   0.20058
 Alpha virt. eigenvalues --    0.21063   0.21429   0.22387   0.22655   0.23240
 Alpha virt. eigenvalues --    0.24698   0.24847   0.27757   0.29421   0.33252
 Alpha virt. eigenvalues --    0.33666   0.34149   0.35076   0.36796   0.38231
 Alpha virt. eigenvalues --    0.39343   0.39769   0.39998   0.40381   0.41771
 Alpha virt. eigenvalues --    0.43435   0.43687   0.44203   0.44736   0.45278
 Alpha virt. eigenvalues --    0.45460   0.45570   0.46447   0.46945   0.47387
 Alpha virt. eigenvalues --    0.47852   0.48849   0.49067   0.49475   0.49744
 Alpha virt. eigenvalues --    0.50352   0.50441   0.50574   0.51057   0.51384
 Alpha virt. eigenvalues --    0.51715   0.52234   0.52330   0.52556   0.52811
 Alpha virt. eigenvalues --    0.53420   0.53477   0.55004   0.55615   0.55909
 Alpha virt. eigenvalues --    0.56162   0.57574   0.57769   0.58438   0.59722
 Alpha virt. eigenvalues --    0.60697   0.61905   0.62592   0.63753   0.64561
 Alpha virt. eigenvalues --    0.65592   0.66076   0.66714   0.67533   0.67715
 Alpha virt. eigenvalues --    0.68284   0.69154   0.70062   0.70522   0.70725
 Alpha virt. eigenvalues --    0.71340   0.71822   0.72614   0.73152   0.73318
 Alpha virt. eigenvalues --    0.73609   0.73985   0.74162   0.74425   0.75357
 Alpha virt. eigenvalues --    0.75540   0.76316   0.76939   0.77493   0.78635
 Alpha virt. eigenvalues --    0.79646   0.79867   0.80545   0.80884   0.81270
 Alpha virt. eigenvalues --    0.81658   0.82385   0.83050   0.84037   0.84294
 Alpha virt. eigenvalues --    0.84658   0.85306   0.86027   0.86882   0.87550
 Alpha virt. eigenvalues --    0.88195   0.88490   0.88772   0.89817   0.90723
 Alpha virt. eigenvalues --    0.92615   0.94086   0.94251   0.96548   0.98783
 Alpha virt. eigenvalues --    1.01451   1.01665   1.03287   1.03626   1.04572
 Alpha virt. eigenvalues --    1.04762   1.05994   1.07262   1.07880   1.08692
 Alpha virt. eigenvalues --    1.09614   1.10290   1.11839   1.13004   1.16027
 Alpha virt. eigenvalues --    1.16255   1.19255   1.19796   1.22205   1.23522
 Alpha virt. eigenvalues --    1.24582   1.25296   1.25606   1.27101   1.28248
 Alpha virt. eigenvalues --    1.29883   1.30561   1.30886   1.31015   1.32283
 Alpha virt. eigenvalues --    1.32453   1.32702   1.32841   1.33235   1.33313
 Alpha virt. eigenvalues --    1.33613   1.36688   1.37123   1.37792   1.39825
 Alpha virt. eigenvalues --    1.40209   1.41125   1.45603   1.50383   1.51641
 Alpha virt. eigenvalues --    1.54955   1.57349   1.57934   1.59254   1.60191
 Alpha virt. eigenvalues --    1.61225   1.61945   1.62564   1.62852   1.65014
 Alpha virt. eigenvalues --    1.65812   1.66386   1.67271   1.67458   1.68705
 Alpha virt. eigenvalues --    1.69087   1.69330   1.70115   1.70421   1.71071
 Alpha virt. eigenvalues --    1.71517   1.72206   1.74067   1.75424   1.76322
 Alpha virt. eigenvalues --    1.77784   1.78450   1.78776   1.79254   1.79559
 Alpha virt. eigenvalues --    1.81456   1.81639   1.82124   1.82739   1.82838
 Alpha virt. eigenvalues --    1.83234   1.83698   1.85356   1.85987   1.86580
 Alpha virt. eigenvalues --    1.87065   1.87871   1.87940   1.88218   1.88597
 Alpha virt. eigenvalues --    1.90593   1.91228   1.91351   1.91869   1.93084
 Alpha virt. eigenvalues --    1.93547   1.94996   1.96751   1.97041   1.98129
 Alpha virt. eigenvalues --    1.98333   1.98366   1.99803   1.99944   2.01066
 Alpha virt. eigenvalues --    2.01503   2.02256   2.02834   2.03235   2.04705
 Alpha virt. eigenvalues --    2.05838   2.07887   2.08546   2.09598   2.10338
 Alpha virt. eigenvalues --    2.12409   2.13234   2.13827   2.16703   2.17002
 Alpha virt. eigenvalues --    2.17850   2.18298   2.19406   2.19879   2.20503
 Alpha virt. eigenvalues --    2.21211   2.21389   2.22634   2.23107   2.23468
 Alpha virt. eigenvalues --    2.24482   2.24839   2.26092   2.27728   2.28079
 Alpha virt. eigenvalues --    2.28751   2.29316   2.29672   2.30256   2.31157
 Alpha virt. eigenvalues --    2.31338   2.32055   2.32755   2.32985   2.34174
 Alpha virt. eigenvalues --    2.35032   2.35205   2.35526   2.36344   2.37345
 Alpha virt. eigenvalues --    2.38534   2.38756   2.39823   2.40232   2.41257
 Alpha virt. eigenvalues --    2.41797   2.42004   2.42676   2.42910   2.44472
 Alpha virt. eigenvalues --    2.44884   2.45596   2.46963   2.48677   2.50100
 Alpha virt. eigenvalues --    2.50314   2.50467   2.51676   2.53067   2.54584
 Alpha virt. eigenvalues --    2.55259   2.55942   2.56296   2.57041   2.57706
 Alpha virt. eigenvalues --    2.59529   2.60162   2.62259   2.63258   2.64238
 Alpha virt. eigenvalues --    2.64496   2.65162   2.66060   2.66405   2.67440
 Alpha virt. eigenvalues --    2.68368   2.69082   2.69845   2.70473   2.71790
 Alpha virt. eigenvalues --    2.72733   2.72856   2.74958   2.75093   2.75397
 Alpha virt. eigenvalues --    2.76327   2.77615   2.78819   2.79926   2.80428
 Alpha virt. eigenvalues --    2.81640   2.82400   2.83595   2.86292   2.89839
 Alpha virt. eigenvalues --    2.91598   2.94696   2.95885   2.96684   2.98045
 Alpha virt. eigenvalues --    3.06229   3.08626   3.10114   3.11308   3.11654
 Alpha virt. eigenvalues --    3.13562   3.14429   3.15000   3.15052   3.15265
 Alpha virt. eigenvalues --    3.15450   3.16113   3.19230   3.20336   3.22773
 Alpha virt. eigenvalues --    3.24826   3.25910   3.26942   3.29985   3.30738
 Alpha virt. eigenvalues --    3.31057   3.31447   3.32637   3.33056   3.34315
 Alpha virt. eigenvalues --    3.37768   3.40376   3.40812   3.41201   3.42240
 Alpha virt. eigenvalues --    3.43674   3.46714   3.79723   3.81040   4.01036
 Alpha virt. eigenvalues --    4.03162   4.04146   4.05212   4.06628   4.07581
 Alpha virt. eigenvalues --    4.08340   4.12332   4.17172   4.23040   4.25810
 Alpha virt. eigenvalues --    4.28112   4.32088   4.34410   4.35517   4.39100
 Alpha virt. eigenvalues --    4.42020   4.45751   4.47212   4.55238   4.58661
 Alpha virt. eigenvalues --    4.60901   4.66988   4.74757   4.76764
          Condensed to atoms (all electrons):
 Mulliken charges:
               1
     1  C   -0.076741
     2  C   -0.071448
     3  C   -0.082773
     4  C   -0.082421
     5  C   -0.092643
     6  C   -0.092632
     7  C   -0.115986
     8  C   -0.112322
     9  C   -0.082722
    10  C   -0.082834
    11  C    0.114980
    12  C    0.178668
    13  C    0.580254
    14  C   -0.208064
    15  C   -0.207296
    16  C   -0.106833
    17  C   -0.106465
    18  C    0.075681
    19  C   -0.305843
    20  C   -0.303975
    21  C   -0.269258
    22  C   -0.069354
    23  N   -0.540690
    24  N   -0.440116
    25  O   -0.516167
    26  H    0.115265
    27  H    0.116137
    28  H    0.112398
    29  H    0.112856
    30  H    0.115463
    31  H    0.115247
    32  H    0.084223
    33  H    0.085888
    34  H    0.096201
    35  H    0.095368
    36  H    0.147277
    37  H    0.165982
    38  H    0.168771
    39  H    0.146951
    40  H    0.166140
    41  H    0.157591
    42  H    0.155737
    43  H    0.165903
    44  H    0.120272
    45  H    0.121364
    46  H    0.121131
    47  H    0.112007
    48  H    0.122442
    49  H    0.132797
    50  H    0.136923
    51  H    0.136517
    52  H    0.162005
    53  H    0.193476
    54  H    0.334668
 Sum of Mulliken charges =   1.00000
 Mulliken charges with hydrogens summed into heavy atoms:
               1
     1  C    0.038525
     2  C    0.044689
     3  C    0.029624
     4  C    0.030435
     5  C    0.022820
     6  C    0.022615
     7  C   -0.031763
     8  C   -0.026434
     9  C    0.013479
    10  C    0.012535
    11  C    0.114980
    12  C    0.178668
    13  C    0.580254
    14  C    0.105195
    15  C    0.108426
    16  C    0.216898
    17  C    0.215175
    18  C    0.195953
    19  C    0.048659
    20  C   -0.048736
    21  C    0.004182
    22  C    0.286127
    23  N   -0.540690
    24  N   -0.105448
    25  O   -0.516167
 Electronic spatial extent (au):  <R**2>=          13036.3601
 Charge=              1.0000 electrons
 Dipole moment (field-independent basis, Debye):
    X=              1.7731    Y=             -7.9713    Z=              0.1068  Tot=              8.1669
 Quadrupole moment (field-independent basis, Debye-Ang):
   XX=            -78.3019   YY=           -125.1628   ZZ=           -131.8671
   XY=             -3.5479   XZ=             -3.4886   YZ=              4.8902
 Traceless Quadrupole moment (field-independent basis, Debye-Ang):
   XX=             33.4754   YY=            -13.3855   ZZ=            -20.0899
   XY=             -3.5479   XZ=             -3.4886   YZ=              4.8902
 Octapole moment (field-independent basis, Debye-Ang**2):
  XXX=            -16.2690  YYY=            -40.0542  ZZZ=             -1.1213  XYY=             39.4325
  XXY=             26.4090  XXZ=            -28.4442  XZZ=            -14.6578  YZZ=            -11.2306
  YYZ=              0.3801  XYZ=             12.4670
 Hexadecapole moment (field-independent basis, Debye-Ang**3):
 XXXX=         -11706.2448 YYYY=          -2136.2522 ZZZZ=           -849.7304 XXXY=            547.3478
 XXXZ=           -337.2639 YYYX=           -102.8493 YYYZ=             21.6104 ZZZX=            -21.5377
 ZZZY=             13.9008 XXYY=          -2622.2365 XXZZ=          -2359.4210 YYZZ=           -511.8476
 XXYZ=             82.3102 YYXZ=             32.3347 ZZXY=              3.0107
 N-N= 2.136364768593D+03 E-N=-6.662489761497D+03  KE= 1.030313320258D+03
 Calling FoFJK, ICntrl=      2127 FMM=F ISym2X=0 I1Cent= 0 IOpClX= 0 NMat=1 NMatS=1 NMatT=0.
 ***** Axes restored to original set *****
 -------------------------------------------------------------------
 Center     Atomic                   Forces (Hartrees/Bohr)
 Number     Number              X              Y              Z
 -------------------------------------------------------------------
      1        6           0.001312515   -0.000100885    0.000882784
      2        6          -0.001641549   -0.001237481   -0.001002203
      3        6          -0.000222826    0.000423313    0.001447839
      4        6           0.000725210   -0.001161449   -0.000502903
      5        6          -0.000747164   -0.000043695   -0.000802158
      6        6          -0.001103637   -0.000054610   -0.000386586
      7        6           0.003559856    0.000028559    0.004817454
      8        6           0.005562917   -0.002354908    0.001993381
      9        6          -0.004891685    0.000852945    0.002852615
     10        6           0.000292638    0.000600284   -0.005762268
     11        6          -0.001230818   -0.002082500   -0.001595129
     12        6           0.007062245    0.007452493    0.004129743
     13        6          -0.000441474   -0.002426522   -0.005866355
     14        6           0.004731010    0.002954781   -0.003963489
     15        6          -0.000579701    0.002824106    0.007610962
     16        6          -0.000102748   -0.001673608   -0.012594051
     17        6          -0.011854088   -0.001920925    0.004279511
     18        6           0.003965948    0.000697789    0.003121936
     19        6           0.006479180    0.000838955    0.004274492
     20        6          -0.004584908    0.007318449   -0.007660472
     21        6           0.001160265   -0.003404346    0.003072217
     22        6           0.005088317   -0.006521777    0.004342301
     23        7           0.009041210   -0.035611414    0.007558271
     24        7          -0.007963269    0.040086064   -0.003695438
     25        8          -0.016212615    0.016003918   -0.008783030
     26        1          -0.000386299    0.000147815   -0.000361258
     27        1           0.000440656    0.000135618    0.000306817
     28        1          -0.000198056    0.000007640   -0.000527894
     29        1          -0.000330440    0.000261611   -0.000120958
     30        1           0.000592452    0.000250356    0.000154065
     31        1           0.000472856    0.000332910    0.000565066
     32        1          -0.000466577    0.000614363   -0.000838729
     33        1          -0.000554643    0.000617780   -0.000595762
     34        1           0.002365073    0.000043909   -0.000572624
     35        1           0.000526788    0.000143319    0.002342014
     36        1           0.001190324    0.002379635   -0.001360579
     37        1          -0.001964395   -0.003313636    0.001362762
     38        1           0.000912096   -0.002310212   -0.002485650
     39        1          -0.000185391    0.002685146    0.000970698
     40        1          -0.006801175   -0.001361386    0.002798353
     41        1           0.003562261    0.000847848    0.004025442
     42        1           0.004997072    0.000508673    0.000826074
     43        1          -0.000005783   -0.001351145   -0.007080426
     44        1           0.001234424    0.002259527    0.000524074
     45        1           0.002293549   -0.000950832   -0.000810022
     46        1          -0.000724728   -0.000024650    0.002130395
     47        1          -0.001721912    0.001677321   -0.000905284
     48        1          -0.001493119    0.000926906    0.000667331
     49        1           0.001762402   -0.001395907    0.001262028
     50        1          -0.006843697    0.000523850    0.000125094
     51        1          -0.002543444   -0.000581384   -0.006465232
     52        1           0.002679677   -0.001640552   -0.000878242
     53        1           0.001048463    0.002175580    0.004172338
     54        1           0.002736736   -0.025097640    0.003000687
 -------------------------------------------------------------------
 Cartesian Forces:  Max     0.040086064 RMS     0.005993978

 GradGradGradGradGradGradGradGradGradGradGradGradGradGradGradGradGradGrad
 Berny optimization.
 FormGI is forming the generalized inverse of G from B-inverse, IUseBI=4.
 Internal  Forces:  Max     0.033871810 RMS     0.004263294
 Search for a local minimum.
 Step number   1 out of a maximum of  323
 All quantities printed in internal units (Hartrees-Bohrs-Radians)
 Mixed Optimization -- RFO/linear search
 Second derivative matrix not updated -- first step.
 ITU=  0
     Eigenvalues ---    0.16000   0.16000   0.16000   0.21762   0.21802
     Eigenvalues ---    0.21880   0.25000   0.28571   0.29786   0.29860
     Eigenvalues ---    0.30155   0.30251   0.30440   0.30587   0.31870
     Eigenvalues ---    0.32243   0.33378   0.33450   0.33518   0.33536
     Eigenvalues ---    0.33886   0.33918   0.34028   0.34098   0.34216
     Eigenvalues ---    0.34220   0.34229   0.34238   0.34290   0.34312
     Eigenvalues ---    0.34327   0.34347   0.34404   0.34434   0.34568
     Eigenvalues ---    0.35132   0.35143   0.35180   0.35184   0.35257
     Eigenvalues ---    0.35257   0.35262   0.35263   0.35280   0.35285
     Eigenvalues ---    0.36860   0.36957   0.38302   0.39112   0.41105
     Eigenvalues ---    0.41614   0.41638   0.46475   0.46478   0.46480
     Eigenvalues ---    0.46486   0.46487   0.46490   0.89600 999.99648
     Eigenvalues ---  999.99801 999.99812 999.99918 999.99937 999.99940
     Eigenvalues ---  999.99960 999.99962 999.99970 999.99976 999.99979
     Eigenvalues ---  999.99980 999.99982 999.99983 999.99987 999.99988
     Eigenvalues ---  999.99990 999.99990 999.99991 999.99992 999.99993
     Eigenvalues ---  999.99993 999.99994 999.99994 999.99995 999.99996
     Eigenvalues ---  999.99996 999.99996 999.99997 999.99997 999.99998
     Eigenvalues ---  999.99998 999.99998 999.99998 999.99999 999.99999
     Eigenvalues ---  999.99999 999.99999 999.99999 999.999991000.00000
     Eigenvalues --- 1000.000001000.000001000.000001000.000001000.00000
     Eigenvalues --- 1000.000001000.000001000.000001000.000001000.00000
     Eigenvalues --- 1000.000001000.000001000.000001000.000001000.00000
     Eigenvalues --- 1000.000001000.000001000.000001000.000001000.00000
     Eigenvalues --- 1000.000001000.000001000.000001000.000001000.00000
     Eigenvalues --- 1000.000001000.000001000.000001000.000001000.00000
     Eigenvalues --- 1000.000001000.000001000.000001000.000001000.00000
     Eigenvalues --- 1000.000001000.000001000.000001000.000001000.00000
     Eigenvalues --- 1000.000001000.000001000.000001000.000001000.00000
     Eigenvalues --- 1000.000001000.000001000.000001000.000001000.00000
     Eigenvalues --- 1000.000001000.000001000.000001000.000001000.00000
     Eigenvalues --- 1000.000001000.000001000.000001000.000001000.00000
     Eigenvalues --- 1000.000001000.000001000.000001000.000001000.00000
     Eigenvalues --- 1000.000001000.000001000.000001000.000001000.00000
     Eigenvalues --- 1000.000001000.000001000.000001000.000001000.00000
     Eigenvalues --- 1000.000001000.000001000.000001000.000001000.00000
     Eigenvalues --- 1000.000001000.000001000.000001000.000001000.00000
     Eigenvalues --- 1000.000001000.000001000.000001000.000001000.00000
     Eigenvalues --- 1000.000001000.000001000.000001000.000001000.00000
     Eigenvalues --- 1000.000001000.000001000.000001000.000001000.00000
     Eigenvalues --- 1000.000001000.000001000.000001000.000001000.00000
     Eigenvalues --- 1000.000001000.000001000.000001000.000001000.00000
     Eigenvalues --- 1000.000001000.000001000.000001000.000001000.00000
     Eigenvalues --- 1000.000001000.000001000.000001000.000001000.00000
     Eigenvalues --- 1000.000001000.000001000.000001000.000001000.00000
     Eigenvalues --- 1000.000001000.000001000.000001000.000001000.00000
     Eigenvalues --- 1000.000001000.000001000.000001000.000001000.00000
     Eigenvalues --- 1000.000001000.000001000.000001000.000001000.00000
     Eigenvalues --- 1000.000001000.000001000.000001000.000001000.00000
     Eigenvalues --- 1000.000001000.000001000.000001000.000001000.00000
     Eigenvalues --- 1000.000001000.000001000.000001000.000001000.00000
     Eigenvalues --- 1000.000001000.000001000.000001000.000001000.00000
     Eigenvalues --- 1000.000001000.000001000.000001000.000001000.00000
     Eigenvalues --- 1000.000001000.000001000.000001000.000001000.00000
     Eigenvalues --- 1000.000001000.000001000.000011000.000011000.00001
     Eigenvalues --- 1000.000011000.000011000.000011000.000011000.00001
     Eigenvalues --- 1000.000021000.000021000.000021000.000021000.00002
     Eigenvalues --- 1000.000031000.000041000.000041000.000051000.00005
     Eigenvalues --- 1000.000061000.000061000.000071000.000081000.00010
     Eigenvalues --- 1000.000131000.000131000.000141000.000141000.00016
     Eigenvalues --- 1000.000191000.000201000.000231000.000251000.00031
     Eigenvalues --- 1000.000381000.000381000.000391000.000461000.00071
     Eigenvalues --- 1000.001201000.002111000.00513
 RFO step:  Lambda=-8.61307984D-03 EMin= 1.60000000D-01
 Linear search not attempted -- first point.
 Iteration  1 RMS(Cart)=  0.05901888 RMS(Int)=  0.00093720
 Iteration  2 RMS(Cart)=  0.00267793 RMS(Int)=  0.00001715
 Iteration  3 RMS(Cart)=  0.00000470 RMS(Int)=  0.00001711
 Iteration  4 RMS(Cart)=  0.00000000 RMS(Int)=  0.00001711
 Iteration  1 RMS(Cart)=  0.00000842 RMS(Int)=  0.00000534
 Iteration  2 RMS(Cart)=  0.00000275 RMS(Int)=  0.00000589
 Iteration  3 RMS(Cart)=  0.00000094 RMS(Int)=  0.00000627
 Variable       Old X    -DE/DX   Delta X   Delta X   Delta X     New X
                                 (Linear)    (Quad)   (Total)
    R1        2.63588   0.00085   0.00000   0.00340   0.00340   2.63928
    R2        2.63596   0.00089   0.00000   0.00435   0.00435   2.64032
    R3        2.05250  -0.00053   0.00000  -0.00145  -0.00145   2.05104
    R4        2.63581   0.00138   0.00000   0.00243   0.00243   2.63823
    R5        2.63584   0.00138   0.00000   0.00238   0.00238   2.63822
    R6        2.05259  -0.00054   0.00000  -0.00149  -0.00149   2.05111
    R7        2.63598   0.00062   0.00000   0.00186   0.00186   2.63784
    R8        2.05251  -0.00047   0.00000  -0.00130  -0.00130   2.05121
    R9        2.63581   0.00059   0.00000   0.00150   0.00150   2.63731
   R10        2.05214  -0.00035   0.00000  -0.00098  -0.00098   2.05116
   R11        2.63587   0.00118   0.00000   0.00248   0.00248   2.63836
   R12        2.05222  -0.00046   0.00000  -0.00128  -0.00128   2.05094
   R13        2.63587   0.00115   0.00000   0.00243   0.00243   2.63830
   R14        2.05260  -0.00060   0.00000  -0.00166  -0.00166   2.05094
   R15        2.63606   0.00470   0.00000   0.00601   0.00601   2.64207
   R16        2.05383   0.00040   0.00000   0.00110   0.00110   2.05493
   R17        2.63602   0.00492   0.00000   0.00945   0.00945   2.64547
   R18        2.05377   0.00025   0.00000   0.00071   0.00071   2.05447
   R19        2.63603   0.00233   0.00000   0.00544   0.00544   2.64147
   R20        2.05443  -0.00072   0.00000  -0.00200  -0.00200   2.05243
   R21        2.63584   0.00237   0.00000   0.00550   0.00550   2.64134
   R22        2.05461  -0.00077   0.00000  -0.00214  -0.00214   2.05246
   R23        2.83701   0.00923   0.00000   0.02787   0.02787   2.86488
   R24        2.75911  -0.00734   0.00000  -0.01942  -0.01942   2.73969
   R25        2.88392   0.00203   0.00000   0.00662   0.00662   2.89054
   R26        2.69417  -0.02540   0.00000  -0.05980  -0.05980   2.63437
   R27        2.33118  -0.01161   0.00000  -0.01283  -0.01283   2.31835
   R28        2.87645   0.00370   0.00000   0.01205   0.01205   2.88850
   R29        2.89140   0.00634   0.00000   0.01951   0.01951   2.91091
   R30        2.06654   0.00049   0.00000   0.00139   0.00139   2.06793
   R31        2.06382   0.00024   0.00000   0.00067   0.00067   2.06449
   R32        2.87665   0.00336   0.00000   0.01073   0.01073   2.88738
   R33        2.89149   0.00697   0.00000   0.02195   0.02195   2.91343
   R34        2.06604   0.00015   0.00000   0.00043   0.00043   2.06648
   R35        2.06843  -0.00015   0.00000  -0.00042  -0.00042   2.06801
   R36        2.85100   0.00687   0.00000   0.02226   0.02226   2.87326
   R37        2.08268  -0.00739   0.00000  -0.02154  -0.02154   2.06114
   R38        2.08121  -0.00440   0.00000  -0.01280  -0.01280   2.06841
   R39        2.85104   0.00559   0.00000   0.01865   0.01865   2.86969
   R40        2.08152  -0.00411   0.00000  -0.01196  -0.01196   2.06956
   R41        2.08392  -0.00707   0.00000  -0.02064  -0.02064   2.06328
   R42        2.72779   0.01555   0.00000   0.03891   0.03891   2.76670
   R43        2.07282  -0.00064   0.00000  -0.00182  -0.00182   2.07100
   R44        2.87466   0.00591   0.00000   0.01899   0.01899   2.89365
   R45        2.06807  -0.00096   0.00000  -0.00272  -0.00272   2.06536
   R46        2.06930  -0.00149   0.00000  -0.00424  -0.00424   2.06506
   R47        2.06945  -0.00130   0.00000  -0.00370  -0.00370   2.06575
   R48        2.88244   0.00487   0.00000   0.01586   0.01586   2.89830
   R49        2.07523   0.00155   0.00000   0.00446   0.00446   2.07969
   R50        2.07469  -0.00086   0.00000  -0.00247  -0.00247   2.07222
   R51        2.06968  -0.00026   0.00000  -0.00073  -0.00073   2.06894
   R52        2.06960  -0.00024   0.00000  -0.00068  -0.00068   2.06892
   R53        2.84383   0.01410   0.00000   0.04309   0.04309   2.88692
   R54        2.06749  -0.00163   0.00000  -0.00462  -0.00462   2.06287
   R55        2.06782  -0.00250   0.00000  -0.00709  -0.00709   2.06072
   R56        2.00628  -0.02541   0.00000  -0.06489  -0.06489   1.94139
    A1        2.09437  -0.00003   0.00000   0.00030   0.00030   2.09468
    A2        2.09420   0.00003   0.00000  -0.00015  -0.00015   2.09405
    A3        2.09461  -0.00000   0.00000  -0.00015  -0.00015   2.09446
    A4        2.09445  -0.00022   0.00000  -0.00000  -0.00000   2.09445
    A5        2.09471   0.00007   0.00000   0.00000   0.00000   2.09471
    A6        2.09402   0.00015   0.00000   0.00000   0.00000   2.09402
    A7        2.09442   0.00034   0.00000   0.00090   0.00090   2.09532
    A8        2.09459   0.00008   0.00000  -0.00045  -0.00045   2.09414
    A9        2.09418  -0.00041   0.00000  -0.00045  -0.00045   2.09372
   A10        2.09446   0.00029   0.00000   0.00117   0.00117   2.09564
   A11        2.09466   0.00007   0.00000  -0.00059  -0.00059   2.09407
   A12        2.09406  -0.00036   0.00000  -0.00059  -0.00059   2.09348
   A13        2.09436   0.00049   0.00000   0.00100   0.00100   2.09537
   A14        2.09480   0.00024   0.00000  -0.00050  -0.00050   2.09430
   A15        2.09402  -0.00073   0.00000  -0.00050  -0.00050   2.09352
   A16        2.09437   0.00050   0.00000   0.00101   0.00101   2.09538
   A17        2.09414   0.00031   0.00000  -0.00051  -0.00051   2.09363
   A18        2.09467  -0.00080   0.00000  -0.00050  -0.00050   2.09417
   A19        2.09436   0.00171   0.00000  -0.00065  -0.00065   2.09371
   A20        2.08555  -0.00006   0.00000   0.00033   0.00033   2.08588
   A21        2.10328  -0.00165   0.00000   0.00032   0.00032   2.10360
   A22        2.09439   0.00171   0.00000  -0.00173  -0.00173   2.09266
   A23        2.08553  -0.00004   0.00000   0.00088   0.00088   2.08641
   A24        2.10327  -0.00167   0.00000   0.00085   0.00085   2.10411
   A25        2.09443  -0.00041   0.00000  -0.00101  -0.00101   2.09342
   A26        2.08300   0.00248   0.00000   0.00052   0.00052   2.08352
   A27        2.10575  -0.00206   0.00000   0.00049   0.00049   2.10624
   A28        2.09446  -0.00041   0.00000  -0.00100  -0.00100   2.09346
   A29        2.08305   0.00243   0.00000   0.00051   0.00051   2.08356
   A30        2.10568  -0.00202   0.00000   0.00049   0.00049   2.10617
   A31        2.09436  -0.00401   0.00000  -0.00000   0.00000   2.09436
   A32        2.09488   0.00155   0.00000  -0.00000  -0.00000   2.09488
   A33        2.09395   0.00246   0.00000   0.00000  -0.00000   2.09395
   A34        2.09430   0.00005   0.00000   0.00000   0.00000   2.09430
   A35        2.09423  -0.00005   0.00000  -0.00000  -0.00000   2.09423
   A36        2.09466  -0.00000   0.00000   0.00000  -0.00000   2.09466
   A37        2.00800   0.01776   0.00000   0.06026   0.06026   2.06826
   A38        2.08075   0.01615   0.00000  -0.03388  -0.03388   2.04686
   A39        2.19394  -0.03387   0.00000  -0.02637  -0.02637   2.16758
   A40        1.95163   0.00064   0.00000  -0.00021  -0.00021   1.95142
   A41        1.90213  -0.00186   0.00000   0.00007   0.00007   1.90220
   A42        1.91716   0.00213   0.00000   0.00008   0.00008   1.91723
   A43        1.89926   0.00152   0.00000   0.00007   0.00007   1.89933
   A44        1.92943  -0.00268   0.00000   0.00007   0.00007   1.92950
   A45        1.86176   0.00023   0.00000  -0.00007  -0.00007   1.86169
   A46        1.95174   0.00039   0.00000   0.00019   0.00019   1.95192
   A47        1.91700   0.00167   0.00000  -0.00007  -0.00007   1.91693
   A48        1.90397  -0.00182   0.00000  -0.00006  -0.00006   1.90390
   A49        1.92846  -0.00182   0.00000  -0.00006  -0.00006   1.92839
   A50        1.90074   0.00099   0.00000  -0.00006  -0.00006   1.90068
   A51        1.85940   0.00058   0.00000   0.00006   0.00006   1.85946
   A52        1.93648   0.00131   0.00000  -0.00018  -0.00018   1.93630
   A53        1.95426  -0.00003   0.00000   0.00006   0.00005   1.95432
   A54        1.92698   0.00171   0.00000   0.00006   0.00005   1.92703
   A55        1.87722  -0.00112   0.00000   0.00007   0.00007   1.87729
   A56        1.87289  -0.00182   0.00000   0.00007   0.00007   1.87296
   A57        1.89321  -0.00021   0.00000  -0.00006  -0.00006   1.89315
   A58        1.93659   0.00116   0.00000   0.00021   0.00021   1.93680
   A59        1.92579   0.00156   0.00000  -0.00006  -0.00006   1.92573
   A60        1.95641   0.00034   0.00000  -0.00006  -0.00006   1.95634
   A61        1.87210  -0.00111   0.00000  -0.00007  -0.00007   1.87203
   A62        1.87791  -0.00209   0.00000  -0.00008  -0.00008   1.87783
   A63        1.89215  -0.00002   0.00000   0.00007   0.00007   1.89222
   A64        1.93969  -0.00086   0.00000  -0.00000   0.00000   1.93969
   A65        1.93319   0.00067   0.00000   0.00000   0.00000   1.93319
   A66        1.90555  -0.00093   0.00000   0.00000  -0.00000   1.90555
   A67        1.93316   0.00160   0.00000  -0.00000  -0.00000   1.93316
   A68        1.90514  -0.00145   0.00000  -0.00000   0.00000   1.90514
   A69        1.84436   0.00100   0.00000   0.00000   0.00000   1.84436
   A70        1.92566   0.00344   0.00000   0.02000   0.02000   1.94566
   A71        1.93851   0.00155   0.00000   0.00924   0.00918   1.94769
   A72        1.93838  -0.00389   0.00000  -0.02268  -0.02256   1.91582
   A73        1.88817  -0.00246   0.00000  -0.01529  -0.01546   1.87271
   A74        1.88781   0.00022   0.00000   0.00125   0.00143   1.88924
   A75        1.88354   0.00107   0.00000   0.00711   0.00717   1.89071
   A76        1.98702  -0.00667   0.00000  -0.02591  -0.02584   1.96118
   A77        1.89435   0.00297   0.00000   0.00845   0.00848   1.90283
   A78        1.92549   0.00066   0.00000   0.00901   0.00904   1.93453
   A79        1.89101   0.00110   0.00000   0.00855   0.00857   1.89958
   A80        1.91706   0.00251   0.00000   0.00925   0.00927   1.92633
   A81        1.84284  -0.00007   0.00000  -0.00811  -0.00821   1.83463
   A82        1.96874  -0.00538   0.00000  -0.02957  -0.02948   1.93926
   A83        1.90163   0.00018   0.00000   0.00965   0.00969   1.91132
   A84        1.89703   0.00134   0.00000   0.00961   0.00964   1.90667
   A85        1.89451   0.00464   0.00000   0.00988   0.00991   1.90442
   A86        1.89249   0.00401   0.00000   0.00975   0.00978   1.90227
   A87        1.90886  -0.00491   0.00000  -0.00927  -0.00940   1.89946
   A88        1.92659   0.00503   0.00000   0.01719   0.01722   1.94381
   A89        1.93345  -0.00169   0.00000  -0.00482  -0.00479   1.92865
   A90        1.96934  -0.00237   0.00000  -0.00492  -0.00489   1.96445
   A91        1.85555  -0.00061   0.00000  -0.00624  -0.00624   1.84931
   A92        1.86603   0.00041   0.00000  -0.00681  -0.00681   1.85922
   A93        1.90826  -0.00061   0.00000   0.00549   0.00544   1.91371
   A94        2.06836   0.02184   0.00000  -0.00000   0.00000   2.06836
   A95        2.06843   0.00019   0.00000  -0.00000   0.00000   2.06843
   A96        2.14639  -0.02203   0.00000   0.00000  -0.00000   2.14639
   A97        1.96321  -0.00217   0.00000  -0.00000  -0.00000   1.96321
   A98        1.98516   0.00144   0.00000   0.00000  -0.00000   1.98516
   A99        1.83984   0.00059   0.00000  -0.00000   0.00000   1.83984
   A100       1.98511  -0.00064   0.00000   0.00000   0.00000   1.98511
   A101       1.83958   0.00124   0.00000   0.00000  -0.00000   1.83958
   A102       1.83280  -0.00016   0.00000  -0.00000  -0.00000   1.83280
    D1       -0.00007  -0.00001   0.00000   0.00000  -0.00000  -0.00007
    D2       -3.14039   0.00019   0.00000   0.00000   0.00000  -3.14039
    D3        3.14017  -0.00016   0.00000   0.00000  -0.00000   3.14017
    D4       -0.00016   0.00004   0.00000   0.00000   0.00000  -0.00016
    D5        0.00003   0.00002   0.00000   0.00000  -0.00000   0.00003
    D6        3.14046  -0.00015   0.00000   0.00000  -0.00000   3.14046
    D7       -3.14020   0.00017   0.00000   0.00000  -0.00000  -3.14020
    D8        0.00023  -0.00000   0.00000   0.00000  -0.00000   0.00023
    D9        0.00015  -0.00014   0.00000   0.00000  -0.00000   0.00015
   D10       -3.14066  -0.00004   0.00000   0.00000  -0.00000  -3.14066
   D11        3.14067  -0.00010   0.00000   0.00000   0.00000   3.14067
   D12       -0.00014  -0.00001   0.00000   0.00000  -0.00000  -0.00014
   D13       -0.00015   0.00014   0.00000   0.00000   0.00000  -0.00015
   D14        3.14049   0.00005   0.00000   0.00000   0.00000   3.14049
   D15       -3.14067   0.00011   0.00000   0.00000  -0.00000  -3.14067
   D16       -0.00004   0.00001   0.00000   0.00000   0.00000  -0.00004
   D17        0.00013  -0.00001   0.00000   0.00000   0.00000   0.00013
   D18        3.14136   0.00028   0.00000   0.00000   0.00000   3.14136
   D19        3.14045  -0.00021   0.00000   0.00000   0.00000   3.14045
   D20       -0.00150   0.00008   0.00000   0.00000   0.00000  -0.00150
   D21       -0.00006  -0.00001   0.00000   0.00000  -0.00000  -0.00006
   D22       -3.14145  -0.00021   0.00000   0.00000  -0.00000  -3.14145
   D23       -3.14049   0.00016   0.00000   0.00000  -0.00000  -3.14049
   D24        0.00130  -0.00004   0.00000   0.00000  -0.00000   0.00130
   D25       -0.00011  -0.00011   0.00000   0.00000  -0.00000  -0.00011
   D26       -3.14150   0.00016   0.00000   0.00000  -0.00000  -3.14150
   D27        3.14071  -0.00020   0.00000   0.00000  -0.00000   3.14071
   D28       -0.00069   0.00007   0.00000   0.00000  -0.00000  -0.00069
   D29        0.00011   0.00009   0.00000   0.00000   0.00000   0.00011
   D30       -3.14155  -0.00016   0.00000   0.00000   0.00000  -3.14155
   D31       -3.14053   0.00019   0.00000   0.00000   0.00000  -3.14053
   D32        0.00100  -0.00006   0.00000   0.00000   0.00000   0.00100
   D33       -0.00016   0.00002   0.00000   0.00000   0.00000  -0.00016
   D34        3.14136  -0.00038   0.00000   0.00000   0.00000   3.14136
   D35       -3.14139  -0.00027   0.00000   0.00000   0.00000  -3.14139
   D36        0.00013  -0.00067   0.00000   0.00000   0.00000   0.00013
   D37        0.00012  -0.00001   0.00000   0.00000  -0.00000   0.00012
   D38       -3.14140   0.00039   0.00000   0.00000   0.00000  -3.14140
   D39        3.14152   0.00019   0.00000   0.00000   0.00000   3.14152
   D40       -0.00000   0.00059   0.00000   0.00000   0.00000  -0.00000
   D41        0.00006   0.00034   0.00000   0.00000  -0.00000   0.00006
   D42       -3.14155  -0.00085   0.00000   0.00000   0.00000  -3.14155
   D43        3.14145   0.00007   0.00000   0.00000  -0.00000   3.14145
   D44       -0.00016  -0.00112   0.00000   0.00000  -0.00000  -0.00016
   D45       -0.00006  -0.00033   0.00000   0.00000   0.00000  -0.00006
   D46        3.14155   0.00086   0.00000   0.00000  -0.00000   3.14155
   D47       -3.14159  -0.00008   0.00000   0.00000   0.00000  -3.14159
   D48        0.00002   0.00110   0.00000   0.00000   0.00000   0.00002
   D49       -1.57066   0.00007   0.00000   0.00000   0.00000  -1.57066
   D50        0.53673  -0.00076   0.00000   0.00000  -0.00000   0.53673
[...]
     28          1           0        7.374150    0.390110   -1.777804
     29          1           0        5.917361    2.603257    1.607189
     30          1           0       -6.440856   -0.753199   -1.882766
     31          1           0       -6.171532   -0.343519    2.386388
     32          1           0        5.620549   -1.318459   -1.425841
     33          1           0        4.158388    0.903827    1.972661
     34          1           0       -4.015420   -0.329074   -2.085704
     35          1           0       -3.744285    0.082142    2.201307
     36          1           0       -1.018599   -0.893700    2.108157
     37          1           0        0.098031    0.084852    1.174743
     38          1           0       -0.074985   -0.177557   -1.568058
     39          1           0       -1.287485   -1.299911   -2.153924
     40          1           0        1.320311   -1.887228    2.024532
     41          1           0        0.078343   -2.973718    1.375759
     42          1           0       -0.084052   -3.218764   -1.181675
     43          1           0        1.054770   -2.292584   -2.177066
     44          1           0       -2.008478   -1.873000    0.106965
     45          1           0       -1.714702    4.000442   -1.354099
     46          1           0       -1.555345    4.173843    0.390829
     47          1           0       -3.035880    4.723519   -0.418148
     48          1           0        4.065789   -2.348100    0.186193
     49          1           0        3.479716   -1.495662    1.584454
     50          1           0       -3.450995    2.568850    0.738368
     51          1           0       -3.628980    2.404920   -1.026574
     52          1           0        2.624702   -0.969506   -1.327437
     53          1           0        1.967915   -0.087921    0.075924
     54          1           0        1.873376   -2.990268   -0.033979
 ---------------------------------------------------------------------
 Rotational constants (GHZ):           0.4665245           0.0891107           0.0812263

 **********************************************************************

            Population analysis using the SCF density.

 **********************************************************************

 Orbital symmetries:
       Occupied  (A) (A) (A) (A) (A) (A) (A) (A) (A) (A) (A) (A)
                 (A) (A) (A) (A) (A) (A) (A) (A) (A) (A) (A) (A)
                 (A) (A) (A) (A) (A) (A) (A) (A) (A) (A) (A) (A)
                 (A) (A) (A) (A) (A) (A) (A) (A) (A) (A) (A) (A)
                 (A) (A) (A) (A) (A) (A) (A) (A) (A) (A) (A) (A)
                 (A) (A) (A) (A) (A) (A) (A) (A) (A) (A) (A) (A)
                 (A) (A) (A) (A) (A) (A) (A) (A) (A) (A) (A) (A)
                 (A) (A) (A) (A) (A) (A) (A)
       Virtual   (A) (A) (A) (A) (A) (A) (A) (A) (A) (A) (A) (A)
                 (A) (A) (A) (A) (A) (A) (A) (A) (A) (A) (A) (A)
                 (A) (A) (A) (A) (A) (A) (A) (A) (A) (A) (A) (A)
                 (A) (A) (A) (A) (A) (A) (A) (A) (A) (A) (A) (A)
                 (A) (A) (A) (A) (A) (A) (A) (A) (A) (A) (A) (A)
                 (A) (A) (A) (A) (A) (A) (A) (A) (A) (A) (A) (A)
                 (A) (A) (A) (A) (A) (A) (A) (A) (A) (A) (A) (A)
                 (A) (A) (A) (A) (A) (A) (A) (A) (A) (A) (A) (A)
                 (A) (A) (A) (A) (A) (A) (A) (A) (A) (A) (A) (A)
                 (A) (A) (A) (A) (A) (A) (A) (A) (A) (A) (A) (A)
                 (A) (A) (A) (A) (A) (A) (A) (A) (A) (A) (A) (A)
                 (A) (A) (A) (A) (A) (A) (A) (A) (A) (A) (A) (A)
                 (A) (A) (A) (A) (A) (A) (A) (A) (A) (A) (A) (A)
                 (A) (A) (A) (A) (A) (A) (A) (A) (A) (A) (A) (A)
                 (A) (A) (A) (A) (A) (A) (A) (A) (A) (A) (A) (A)
                 (A) (A) (A) (A) (A) (A) (A) (A) (A) (A) (A) (A)
                 (A) (A) (A) (A) (A) (A) (A) (A) (A) (A) (A) (A)
                 (A) (A) (A) (A) (A) (A) (A) (A) (A) (A) (A) (A)
                 (A) (A) (A) (A) (A) (A) (A) (A) (A) (A) (A) (A)
                 (A) (A) (A) (A) (A) (A) (A) (A) (A) (A) (A) (A)
                 (A) (A) (A) (A) (A) (A) (A) (A) (A) (A) (A) (A)
                 (A) (A) (A) (A) (A) (A) (A) (A) (A) (A) (A) (A)
                 (A) (A) (A) (A) (A) (A) (A) (A) (A) (A) (A) (A)
                 (A) (A) (A) (A) (A) (A) (A) (A) (A) (A) (A) (A)
                 (A) (A) (A) (A) (A) (A) (A) (A) (A) (A) (A) (A)
                 (A) (A) (A) (A) (A) (A) (A) (A) (A) (A) (A) (A)
                 (A) (A) (A) (A) (A) (A) (A) (A) (A) (A) (A) (A)
                 (A) (A) (A) (A) (A) (A) (A) (A) (A) (A) (A) (A)
                 (A) (A) (A) (A) (A) (A) (A) (A) (A) (A) (A) (A)
                 (A) (A) (A) (A) (A) (A) (A) (A) (A) (A) (A) (A)
                 (A) (A) (A) (A) (A) (A) (A) (A) (A) (A) (A) (A)
                 (A) (A) (A) (A) (A) (A) (A) (A) (A) (A) (A) (A)
                 (A) (A) (A) (A) (A) (A) (A) (A) (A) (A) (A) (A)
                 (A) (A) (A) (A) (A) (A) (A) (A) (A) (A) (A) (A)
                 (A) (A) (A) (A) (A) (A) (A) (A) (A) (A) (A) (A)
                 (A) (A) (A) (A) (A) (A) (A) (A) (A)
 The electronic state is 1-A.
 Alpha  occ. eigenvalues --  -19.21149 -14.60658 -14.47236 -10.39275 -10.39236
 Alpha  occ. eigenvalues --  -10.38505 -10.38320 -10.36247 -10.33278 -10.32730
 Alpha  occ. eigenvalues --  -10.32686 -10.32562 -10.30330 -10.29064 -10.29053
 Alpha  occ. eigenvalues --  -10.28796 -10.28741 -10.28612 -10.28604 -10.28390
 Alpha  occ. eigenvalues --  -10.28170 -10.28139 -10.27940 -10.27335 -10.24411
 Alpha  occ. eigenvalues --   -1.15794  -1.12980  -1.04868  -0.96435  -0.95345
 Alpha  occ. eigenvalues --   -0.93609  -0.92834  -0.91166  -0.85572  -0.84604
 Alpha  occ. eigenvalues --   -0.84355  -0.83876  -0.83596  -0.80605  -0.79659
 Alpha  occ. eigenvalues --   -0.78228  -0.73858  -0.71235  -0.70501  -0.70471
 Alpha  occ. eigenvalues --   -0.70319  -0.70113  -0.68065  -0.65991  -0.64750
 Alpha  occ. eigenvalues --   -0.63624  -0.62736  -0.60556  -0.59164  -0.59056
 Alpha  occ. eigenvalues --   -0.58830  -0.57320  -0.57163  -0.56620  -0.55412
 Alpha  occ. eigenvalues --   -0.54749  -0.54394  -0.54203  -0.53896  -0.53670
 Alpha  occ. eigenvalues --   -0.53356  -0.51724  -0.51523  -0.51406  -0.50840
 Alpha  occ. eigenvalues --   -0.50579  -0.49570  -0.49355  -0.48823  -0.47564
 Alpha  occ. eigenvalues --   -0.46092  -0.45789  -0.45328  -0.45058  -0.44308
 Alpha  occ. eigenvalues --   -0.44257  -0.43804  -0.43566  -0.42968  -0.42140
 Alpha  occ. eigenvalues --   -0.35391  -0.35292  -0.34837  -0.34407  -0.34241
 Alpha  occ. eigenvalues --   -0.33780
 Alpha virt. eigenvalues --   -0.11021  -0.10466  -0.10153  -0.09961  -0.09603
 Alpha virt. eigenvalues --   -0.07381  -0.05745  -0.05090  -0.03834  -0.03069
 Alpha virt. eigenvalues --   -0.02298  -0.01750  -0.01045  -0.00148   0.00173
 Alpha virt. eigenvalues --    0.00881   0.01299   0.02506   0.03278   0.03425
 Alpha virt. eigenvalues --    0.03764   0.04075   0.04597   0.05658   0.05764
 Alpha virt. eigenvalues --    0.06206   0.06512   0.06887   0.07302   0.08125
 Alpha virt. eigenvalues --    0.08302   0.08465   0.08761   0.08893   0.09697
 Alpha virt. eigenvalues --    0.10014   0.10461   0.11015   0.11098   0.11652
 Alpha virt. eigenvalues --    0.11830   0.12299   0.12712   0.13264   0.14450
 Alpha virt. eigenvalues --    0.14930   0.15081   0.16389   0.18973   0.19789
 Alpha virt. eigenvalues --    0.21015   0.21354   0.22455   0.22886   0.23209
 Alpha virt. eigenvalues --    0.24548   0.24798   0.29252   0.30063   0.32957
 Alpha virt. eigenvalues --    0.33631   0.34142   0.34888   0.36889   0.38058
 Alpha virt. eigenvalues --    0.39276   0.39706   0.39830   0.40554   0.41364
 Alpha virt. eigenvalues --    0.43147   0.43618   0.44179   0.44674   0.45220
 Alpha virt. eigenvalues --    0.45290   0.45605   0.46511   0.46727   0.47511
 Alpha virt. eigenvalues --    0.47673   0.48558   0.48924   0.49429   0.49471
 Alpha virt. eigenvalues --    0.50236   0.50385   0.50439   0.50903   0.51309
 Alpha virt. eigenvalues --    0.51769   0.52242   0.52342   0.52493   0.52747
 Alpha virt. eigenvalues --    0.53384   0.53399   0.55043   0.55366   0.55589
 Alpha virt. eigenvalues --    0.56012   0.57202   0.57723   0.58467   0.59552
 Alpha virt. eigenvalues --    0.60399   0.61987   0.62811   0.63690   0.64800
 Alpha virt. eigenvalues --    0.65758   0.66141   0.66797   0.67487   0.68231
 Alpha virt. eigenvalues --    0.68252   0.69332   0.70303   0.70509   0.70956
 Alpha virt. eigenvalues --    0.71398   0.71911   0.72719   0.73288   0.73381
 Alpha virt. eigenvalues --    0.73707   0.73992   0.74292   0.74565   0.75518
 Alpha virt. eigenvalues --    0.75566   0.76386   0.77044   0.77592   0.78929
 Alpha virt. eigenvalues --    0.79786   0.80115   0.80578   0.80820   0.81258
 Alpha virt. eigenvalues --    0.81763   0.82374   0.83024   0.84155   0.84460
 Alpha virt. eigenvalues --    0.84867   0.85474   0.85938   0.87184   0.87589
 Alpha virt. eigenvalues --    0.87956   0.88342   0.88844   0.89726   0.90459
 Alpha virt. eigenvalues --    0.92206   0.93694   0.94551   0.96083   0.98250
 Alpha virt. eigenvalues --    1.01052   1.01432   1.02930   1.03418   1.03964
 Alpha virt. eigenvalues --    1.04305   1.05699   1.07142   1.07689   1.08490
 Alpha virt. eigenvalues --    1.09298   1.10321   1.12129   1.13141   1.15883
 Alpha virt. eigenvalues --    1.16173   1.19114   1.20773   1.21510   1.23351
 Alpha virt. eigenvalues --    1.24390   1.24924   1.25159   1.26660   1.28742
 Alpha virt. eigenvalues --    1.29702   1.30500   1.30798   1.30933   1.31979
 Alpha virt. eigenvalues --    1.32255   1.32638   1.32750   1.33001   1.33182
 Alpha virt. eigenvalues --    1.33751   1.36360   1.36636   1.37343   1.39359
 Alpha virt. eigenvalues --    1.40374   1.41275   1.46043   1.50647   1.50795
 Alpha virt. eigenvalues --    1.54307   1.57556   1.58204   1.59219   1.59554
 Alpha virt. eigenvalues --    1.60662   1.60721   1.62570   1.63028   1.64582
 Alpha virt. eigenvalues --    1.65345   1.66027   1.66822   1.67844   1.68138
 Alpha virt. eigenvalues --    1.68610   1.68905   1.69555   1.69912   1.70750
 Alpha virt. eigenvalues --    1.71150   1.72063   1.73410   1.74672   1.75985
 Alpha virt. eigenvalues --    1.77193   1.78043   1.78596   1.78914   1.79709
 Alpha virt. eigenvalues --    1.81021   1.81354   1.81622   1.81877   1.82709
 Alpha virt. eigenvalues --    1.82831   1.83683   1.85100   1.85838   1.86165
 Alpha virt. eigenvalues --    1.86535   1.87653   1.87794   1.88006   1.88429
 Alpha virt. eigenvalues --    1.90906   1.91201   1.91359   1.91788   1.93223
 Alpha virt. eigenvalues --    1.93837   1.95875   1.96904   1.97593   1.97975
 Alpha virt. eigenvalues --    1.98062   1.98417   1.99566   2.00240   2.00851
 Alpha virt. eigenvalues --    2.01275   2.02247   2.03214   2.03488   2.05041
 Alpha virt. eigenvalues --    2.06036   2.08185   2.08661   2.10010   2.10370
 Alpha virt. eigenvalues --    2.12707   2.13691   2.14649   2.16603   2.17027
 Alpha virt. eigenvalues --    2.17914   2.18088   2.19121   2.19505   2.20457
 Alpha virt. eigenvalues --    2.20963   2.21372   2.22557   2.22820   2.23061
 Alpha virt. eigenvalues --    2.24199   2.25166   2.26328   2.27896   2.28065
 Alpha virt. eigenvalues --    2.29025   2.29416   2.29700   2.30539   2.31329
 Alpha virt. eigenvalues --    2.31723   2.32055   2.32928   2.33184   2.34246
 Alpha virt. eigenvalues --    2.35139   2.35541   2.36093   2.36242   2.37558
 Alpha virt. eigenvalues --    2.38465   2.38708   2.39768   2.40101   2.41058
 Alpha virt. eigenvalues --    2.41621   2.42164   2.42802   2.42956   2.44394
 Alpha virt. eigenvalues --    2.44825   2.45671   2.47257   2.48677   2.50185
 Alpha virt. eigenvalues --    2.50308   2.50459   2.52080   2.52747   2.54509
 Alpha virt. eigenvalues --    2.54958   2.55743   2.56154   2.57303   2.57708
 Alpha virt. eigenvalues --    2.59747   2.59847   2.62220   2.62952   2.64222
 Alpha virt. eigenvalues --    2.64469   2.65373   2.65815   2.66244   2.67475
 Alpha virt. eigenvalues --    2.68176   2.69407   2.70147   2.70444   2.71348
 Alpha virt. eigenvalues --    2.72317   2.72659   2.74471   2.74810   2.75383
 Alpha virt. eigenvalues --    2.75936   2.77516   2.78354   2.79014   2.80974
 Alpha virt. eigenvalues --    2.81558   2.82110   2.84312   2.86542   2.90586
 Alpha virt. eigenvalues --    2.91792   2.93659   2.96517   2.96711   2.98504
 Alpha virt. eigenvalues --    3.08208   3.09403   3.10334   3.11098   3.12816
 Alpha virt. eigenvalues --    3.14617   3.15105   3.15229   3.15369   3.15584
 Alpha virt. eigenvalues --    3.16140   3.16875   3.19753   3.20981   3.23856
 Alpha virt. eigenvalues --    3.24857   3.25488   3.27016   3.30663   3.31482
 Alpha virt. eigenvalues --    3.31893   3.32129   3.33174   3.33587   3.33991
 Alpha virt. eigenvalues --    3.37830   3.40296   3.41250   3.41312   3.42025
 Alpha virt. eigenvalues --    3.43442   3.46657   3.79604   3.80455   4.00384
 Alpha virt. eigenvalues --    4.02830   4.04234   4.05093   4.06647   4.07368
 Alpha virt. eigenvalues --    4.09432   4.12756   4.16054   4.23204   4.25751
 Alpha virt. eigenvalues --    4.27820   4.31803   4.34362   4.35256   4.38806
 Alpha virt. eigenvalues --    4.41695   4.44910   4.46724   4.54575   4.58331
 Alpha virt. eigenvalues --    4.60386   4.66063   4.74234   4.76530
          Condensed to atoms (all electrons):
 Mulliken charges:
               1
     1  C   -0.076814
     2  C   -0.070968
     3  C   -0.082376
     4  C   -0.081997
     5  C   -0.092993
     6  C   -0.092914
     7  C   -0.115027
     8  C   -0.110998
     9  C   -0.081498
    10  C   -0.081753
    11  C    0.105865
    12  C    0.173461
    13  C    0.578287
    14  C   -0.207958
    15  C   -0.207334
    16  C   -0.106502
    17  C   -0.106631
    18  C    0.072872
    19  C   -0.301329
    20  C   -0.298709
    21  C   -0.270950
    22  C   -0.071382
    23  N   -0.527241
    24  N   -0.445834
    25  O   -0.527972
    26  H    0.115525
    27  H    0.116202
    28  H    0.112651
    29  H    0.113194
    30  H    0.115354
    31  H    0.115133
    32  H    0.085300
    33  H    0.087257
    34  H    0.096437
    35  H    0.095593
    36  H    0.147016
    37  H    0.168639
    38  H    0.171410
    39  H    0.146769
    40  H    0.166852
    41  H    0.158439
    42  H    0.156719
    43  H    0.166906
    44  H    0.121934
    45  H    0.121689
    46  H    0.121351
    47  H    0.108630
    48  H    0.124513
    49  H    0.133818
    50  H    0.134787
    51  H    0.134090
    52  H    0.163451
    53  H    0.194938
    54  H    0.334096
 Sum of Mulliken charges =   1.00000
 Mulliken charges with hydrogens summed into heavy atoms:
               1
     1  C    0.038711
     2  C    0.045234
     3  C    0.030275
     4  C    0.031197
     5  C    0.022361
     6  C    0.022219
     7  C   -0.029726
     8  C   -0.023741
     9  C    0.014939
    10  C    0.013840
    11  C    0.105865
    12  C    0.173461
    13  C    0.578287
    14  C    0.107697
    15  C    0.110845
    16  C    0.218790
    17  C    0.216994
    18  C    0.194807
    19  C    0.050342
    20  C   -0.040378
    21  C   -0.002073
    22  C    0.287007
    23  N   -0.527241
    24  N   -0.111738
    25  O   -0.527972
 Electronic spatial extent (au):  <R**2>=          12990.4701
 Charge=              1.0000 electrons
 Dipole moment (field-independent basis, Debye):
    X=              1.8014    Y=             -8.1881    Z=              0.0967  Tot=              8.3845
 Quadrupole moment (field-independent basis, Debye-Ang):
   XX=            -78.7017   YY=           -124.0938   ZZ=           -131.4978
   XY=             -3.3349   XZ=             -3.5295   YZ=              4.4176
 Traceless Quadrupole moment (field-independent basis, Debye-Ang):
   XX=             32.7294   YY=            -12.6627   ZZ=            -20.0667
   XY=             -3.3349   XZ=             -3.5295   YZ=              4.4176
 Octapole moment (field-independent basis, Debye-Ang**2):
  XXX=            -23.6388  YYY=            -43.2975  ZZZ=             -1.0202  XYY=             43.9532
  XXY=             26.6875  XXZ=            -30.7757  XZZ=            -14.0383  YZZ=            -12.0813
  YYZ=              0.6116  XYZ=             10.9504
 Hexadecapole moment (field-independent basis, Debye-Ang**3):
 XXXX=         -11668.5581 YYYY=          -2166.8333 ZZZZ=           -849.9477 XXXY=            532.8554
 XXXZ=           -343.1447 YYYX=            -92.1001 YYYZ=             19.6470 ZZZX=            -19.8459
 ZZZY=             13.2060 XXYY=          -2612.2281 XXZZ=          -2336.9252 YYZZ=           -517.8006
 XXYZ=             72.0555 YYXZ=             29.6864 ZZXY=              1.9189
 N-N= 2.134108962289D+03 E-N=-6.658049481585D+03  KE= 1.030253810958D+03
 1\1\GINC-CPU191\FOpt\RB3LYP\6-31G(d,p)\C22H29N2O1(1+)\FEBRERMA\05-Feb-
 2024\0\\# B3LYP/6-31G** opt=Modredundant\\G2\\1,1\C,8.2184292542,2.739
 6370074,1.4664458692\C,-2.2965105293,-3.7379796458,-3.7255742637\C,7.1
 816688235,3.5469851875,1.9384946643\C,8.0852179797,2.0741410355,0.2454
 905437\C,-2.374463441,-3.3725029551,-2.3805286665\C,-1.1487733829,-3.4
 433672531,-4.463592507\C,6.0115033646,3.6900358721,1.1912543131\C,6.91
 67819359,2.2149809474,-0.5038848416\C,-1.3055568507,-2.7121980522,-1.7
 721296094\C,-0.0781977025,-2.7831647297,-3.8580498219\C,5.8777033863,3
 .0242158679,-0.03056875\C,-0.1561623123,-2.4170876614,-2.51116005\C,1.
 937900593,-2.4886632577,-1.2762412535\C,2.2206325755,0.2414880557,-2.6
 764630296\C,0.9323728365,0.3162586432,-0.487155073\C,2.3105752818,1.76
 66855554,-2.6660899214\C,1.0307151315,1.8406295019,-0.4897571832\C,0.9
 817659554,-0.2637879782,-1.9143531146\C,2.9887798026,-4.6932987198,-0.
 611657813\C,4.6060268223,3.17838161,-0.8441411392\C,1.8254996372,-4.01
 86954429,-1.3446419101\C,3.5729242015,2.1119666832,-0.4678039614\N,0.9
 539301851,-1.7318862725,-1.8809380814\N,2.2633218299,2.30413688,-1.245
 072123\O,2.926173199,-2.0176505081,-0.710410237\H,9.1283733149,2.63025
 21724,2.0477637737\H,-3.1277003351,-4.2521015845,-4.197591184\H,7.2860
 556282,4.0648041954,2.8867315089\H,8.8919527701,1.4474900882,-0.121456
 4174\H,-3.2665541356,-3.6024316504,-1.8067209802\H,-1.0886464874,-3.72
 88109458,-5.5089897459\H,5.209592827,4.3207593324,1.5672638079\H,6.822
 3881509,1.6930323949,-1.4527076953\H,-1.3780507348,-2.4330845737,-0.72
 50614445\H,0.8093543529,-2.5594292385,-4.4426376032\H,2.1630155497,-0.
 1047288362,-3.713007897\H,3.1318721451,-0.1865414917,-2.2534486989\H,1
 .733097546,-0.1059620697,0.1253505999\H,-0.0097062649,0.0192463141,-0.
 0161772984\H,3.2344817585,2.1241552449,-3.1225637439\H,1.4651561883,2.
 2025418164,-3.2073816499\H,0.1599395433,2.2773015902,-0.9897905873\H,1
 .089471715,2.2499330549,0.5204242874\H,0.079029955,0.0369003756,-2.455
 7870354\H,3.0208705561,-4.3993236742,0.4396954809\H,3.9495937767,-4.42
 51039347,-1.055979256\H,2.8724369166,-5.7795046318,-0.6636741001\H,4.1
 777179517,4.1755424055,-0.6666193132\H,4.8172380553,3.1525803778,-1.91
 95483155\H,1.8286849839,-4.3385051488,-2.3918379576\H,0.8838182825,-4.
 331835349,-0.8816208776\H,3.309601717,2.1905261762,0.5881364121\H,3.91
 72786331,1.1008930646,-0.6852105971\H,2.1580770632,3.3189441549,-1.341
 0255121\\Version=ES64L-G16RevA.03\State=1-A\HF=-1040.3797795\RMSD=5.64
 9e-09\RMSF=3.436e-03\Dipole=-1.3061309,2.967362,-0.6085754\Quadrupole=
 4.8350304,5.9096715,-10.7447019,13.7074373,9.0074911,10.935334\PG=C01 
 [X(C22H29N2O1)]\\@


 The cat could very well be man's best friend
 but would never stoop to admitting it.
                               -- Doug Larson
 Job cpu time:       0 days  1 hours 35 minutes 42.3 seconds.
 Elapsed time:       0 days  0 hours 12 minutes  2.8 seconds.
 File lengths (MBytes):  RWF=    173 Int=      0 D2E=      0 Chk=     23 Scr=      1
 Normal termination of Gaussian 16 at Mon Feb  5 15:34:25 2024.
