 Entering Gaussian System, Link 0=g16
 Initial command:
 /opt/ebsofts/Gaussian/g16/l1.exe "/scratch/Gau-2563777.inp" -scrdir="/scratch/"
 Entering Link 1 = /opt/ebsofts/Gaussian/g16/l1.exe PID=   2563781.
  
 Copyright (c) 1988,1990,1992,1993,1995,1998,2003,2009,2016,
            Gaussian, Inc.  All Rights Reserved.
  
 This is part of the Gaussian(R) 16 program.  It is based on
 the Gaussian(R) 09 system (copyright 2009, Gaussian, Inc.),
 the Gaussian(R) 03 system (copyright 2003, Gaussian, Inc.),
 the Gaussian(R) 98 system (copyright 1998, Gaussian, Inc.),
 the Gaussian(R) 94 system (copyright 1995, Gaussian, Inc.),
 the Gaussian 92(TM) system (copyright 1992, Gaussian, Inc.),
 the Gaussian 90(TM) system (copyright 1990, Gaussian, Inc.),
 the Gaussian 88(TM) system (copyright 1988, Gaussian, Inc.),
 the Gaussian 86(TM) system (copyright 1986, Carnegie Mellon
 University), and the Gaussian 82(TM) system (copyright 1983,
 Carnegie Mellon University). Gaussian is a federally registered
 trademark of Gaussian, Inc.
  
 This software contains proprietary and confidential information,
 including trade secrets, belonging to Gaussian, Inc.
  
 This software is provided under written license and may be
 used, copied, transmitted, or stored only in accord with that
 written license.
  
 The following legend is applicable only to US Government
 contracts under FAR:
  
                    RESTRICTED RIGHTS LEGEND
  
 Use, reproduction and disclosure by the US Government is
 subject to restrictions as set forth in subparagraphs (a)
 and (c) of the Commercial Computer Software - Restricted
 Rights clause in FAR 52.227-19.
  
 Gaussian, Inc.
 340 Quinnipiac St., Bldg. 40, Wallingford CT 06492
  
  
 ---------------------------------------------------------------
 Warning -- This program may not be used in any manner that
 competes with the business of Gaussian, Inc. or will provide
 assistance to any competitor of Gaussian, Inc.  The licensee
 of this program is prohibited from giving any competitor of
 Gaussian, Inc. access to this program.  By using this program,
 the user acknowledges that Gaussian, Inc. is engaged in the
 business of creating and licensing software in the field of
 computational chemistry and represents and warrants to the
 licensee that it is not a competitor of Gaussian, Inc. and that
 it will not use this program in any manner prohibited above.
 ---------------------------------------------------------------
  

 Cite this work as:
 Gaussian 16, Revision A.03,
 M. J. Frisch, G. W. Trucks, H. B. Schlegel, G. E. Scuseria, 
 M. A. Robb, J. R. Cheeseman, G. Scalmani, V. Barone, 
 G. A. Petersson, H. Nakatsuji, X. Li, M. Caricato, A. V. Marenich, 
 J. Bloino, B. G. Janesko, R. Gomperts, B. Mennucci, H. P. Hratchian, 
 J. V. Ortiz, A. F. Izmaylov, J. L. Sonnenberg, D. Williams-Young, 
 F. Ding, F. Lipparini, F. Egidi, J. Goings, B. Peng, A. Petrone, 
 T. Henderson, D. Ranasinghe, V. G. Zakrzewski, J. Gao, N. Rega, 
 G. Zheng, W. Liang, M. Hada, M. Ehara, K. Toyota, R. Fukuda, 
 J. Hasegawa, M. Ishida, T. Nakajima, Y. Honda, O. Kitao, H. Nakai, 
 T. Vreven, K. Throssell, J. A. Montgomery, Jr., J. E. Peralta, 
 F. Ogliaro, M. J. Bearpark, J. J. Heyd, E. N. Brothers, K. N. Kudin, 
 V. N. Staroverov, T. A. Keith, R. Kobayashi, J. Normand, 
 K. Raghavachari, A. P. Rendell, J. C. Burant, S. S. Iyengar, 
 J. Tomasi, M. Cossi, J. M. Millam, M. Klene, C. Adamo, R. Cammi, 
 J. W. Ochterski, R. L. Martin, K. Morokuma, O. Farkas, 
 J. B. Foresman, and D. J. Fox, Gaussian, Inc., Wallingford CT, 2016.
 
 ******************************************
 Gaussian 16:  ES64L-G16RevA.03 25-Dec-2016
                 5-Feb-2024 
 ******************************************
 %Chk=G2.chk
 %nprocshared=8
 Will use up to    8 processors via shared memory.
 %mem=1GB
 ----------------------------------------------------------------------
 # HF/6-31G** SCRF=(Solvent=Water) POP=MK iop(6/50=1) geom=allcheck gue
 ss=read
 ----------------------------------------------------------------------
 1/29=7,38=1,172=1/1;
 2/12=2,40=1/2;
 3/5=1,6=6,7=101,11=9,14=-4,25=1,30=1,70=2201,72=1,116=-2/1,2,3;
 4/5=1/1;
 5/5=2,38=6,53=1/2;
 6/7=2,8=2,9=2,10=2,15=8,20=1,28=1,50=1/1,2;
 99/5=1,9=1/99;
 Structure from the checkpoint file:  "G2.chk"
 --
 G2
 --
 Charge =  1 Multiplicity = 1
 Redundant internal coordinates found in file.  (old form).
 C,0,8.2184292542,2.7396370074,1.4664458692
 C,0,-2.2965105293,-3.7379796458,-3.7255742637
 C,0,7.1816688235,3.5469851875,1.9384946643
 C,0,8.0852179797,2.0741410355,0.2454905437
 C,0,-2.374463441,-3.3725029551,-2.3805286665
 C,0,-1.1487733829,-3.4433672531,-4.463592507
 C,0,6.0115033646,3.6900358721,1.1912543131
 C,0,6.9167819359,2.2149809474,-0.5038848416
 C,0,-1.3055568507,-2.7121980522,-1.7721296094
 C,0,-0.0781977025,-2.7831647297,-3.8580498219
 C,0,5.8777033863,3.0242158679,-0.03056875
 C,0,-0.1561623123,-2.4170876614,-2.51116005
 C,0,1.937900593,-2.4886632577,-1.2762412535
 C,0,2.2206325755,0.2414880557,-2.6764630296
 C,0,0.9323728365,0.3162586432,-0.487155073
 C,0,2.3105752818,1.7666855554,-2.6660899214
 C,0,1.0307151315,1.8406295019,-0.4897571832
 C,0,0.9817659554,-0.2637879782,-1.9143531146
 C,0,2.9887798026,-4.6932987198,-0.611657813
 C,0,4.6060268223,3.17838161,-0.8441411392
 C,0,1.8254996372,-4.0186954429,-1.3446419101
 C,0,3.5729242015,2.1119666832,-0.4678039614
 N,0,0.9539301851,-1.7318862725,-1.8809380814
 N,0,2.2633218299,2.30413688,-1.245072123
 O,0,2.926173199,-2.0176505081,-0.710410237
 H,0,9.1283733149,2.6302521724,2.0477637737
 H,0,-3.1277003351,-4.2521015845,-4.197591184
 H,0,7.2860556282,4.0648041954,2.8867315089
 H,0,8.8919527701,1.4474900882,-0.1214564174
 H,0,-3.2665541356,-3.6024316504,-1.8067209802
 H,0,-1.0886464874,-3.7288109458,-5.5089897459
 H,0,5.209592827,4.3207593324,1.5672638079
 H,0,6.8223881509,1.6930323949,-1.4527076953
 H,0,-1.3780507348,-2.4330845737,-0.7250614445
 H,0,0.8093543529,-2.5594292385,-4.4426376032
 H,0,2.1630155497,-0.1047288362,-3.713007897
 H,0,3.1318721451,-0.1865414917,-2.2534486989
 H,0,1.733097546,-0.1059620697,0.1253505999
 H,0,-0.0097062649,0.0192463141,-0.0161772984
 H,0,3.2344817585,2.1241552449,-3.1225637439
 H,0,1.4651561883,2.2025418164,-3.2073816499
 H,0,0.1599395433,2.2773015902,-0.9897905873
 H,0,1.089471715,2.2499330549,0.5204242874
 H,0,0.079029955,0.0369003756,-2.4557870354
 H,0,3.0208705561,-4.3993236742,0.4396954809
 H,0,3.9495937767,-4.4251039347,-1.055979256
 H,0,2.8724369166,-5.7795046318,-0.6636741001
 H,0,4.1777179517,4.1755424055,-0.6666193132
 H,0,4.8172380553,3.1525803778,-1.9195483155
 H,0,1.8286849839,-4.3385051488,-2.3918379576
 H,0,0.8838182825,-4.331835349,-0.8816208776
 H,0,3.309601717,2.1905261762,0.5881364121
 H,0,3.9172786331,1.1008930646,-0.6852105971
 H,0,2.1580770632,3.3189441549,-1.3410255121
 Recover connectivity data from disk.
                           ----------------------------
                           !    Current Parameters    !
                           ! (Angstroms and Degrees)  !
 --------------------------                            --------------------------
 ! Name  Definition              Value                                          !
 --------------------------------------------------------------------------------
 ! R1    R(1,3)                  1.3962                                         !
 ! R2    R(1,4)                  1.3969                                         !
 ! R3    R(1,26)                 1.0853                                         !
 ! R4    R(2,5)                  1.396                                          !
 ! R5    R(2,6)                  1.396                                          !
 ! R6    R(2,27)                 1.0854                                         !
 ! R7    R(3,7)                  1.3958                                         !
 ! R8    R(3,28)                 1.0854                                         !
 ! R9    R(4,8)                  1.3952                                         !
 ! R10   R(4,29)                 1.0854                                         !
 ! R11   R(5,9)                  1.396                                          !
 ! R12   R(5,30)                 1.0853                                         !
 ! R13   R(6,10)                 1.396                                          !
 ! R14   R(6,31)                 1.0853                                         !
 ! R15   R(7,11)                 1.3979                                         !
 ! R16   R(7,32)                 1.0873                                         !
 ! R17   R(8,11)                 1.3995                                         !
 ! R18   R(8,33)                 1.087                                          !
 ! R19   R(9,12)                 1.398                                          !
 ! R20   R(9,34)                 1.0861                                         !
 ! R21   R(10,12)                1.3979                                         !
 ! R22   R(10,35)                1.0861                                         !
 ! R23   R(11,20)                1.5175                                         !
 ! R24   R(12,23)                1.4488                                         !
 ! R25   R(13,21)                1.5357                                         !
 ! R26   R(13,23)                1.3808                                         !
 ! R27   R(13,25)                1.2324                                         !
 ! R28   R(14,16)                1.5279                                         !
 ! R29   R(14,18)                1.5398                                         !
 ! R30   R(14,36)                1.0944                                         !
 ! R31   R(14,37)                1.092                                          !
 ! R32   R(15,17)                1.5275                                         !
 ! R33   R(15,18)                1.5414                                         !
 ! R34   R(15,38)                1.093                                          !
 ! R35   R(15,39)                1.0943                                         !
 ! R36   R(16,24)                1.52                                           !
 ! R37   R(16,40)                1.0908                                         !
 ! R38   R(16,41)                1.0944                                         !
 ! R39   R(17,24)                1.5181                                         !
 ! R40   R(17,42)                1.095                                          !
 ! R41   R(17,43)                1.0915                                         !
 ! R42   R(18,23)                1.4687                                         !
 ! R43   R(18,44)                1.0948                                         !
 ! R44   R(19,21)                1.5315                                         !
 ! R45   R(19,45)                1.0922                                         !
 ! R46   R(19,46)                1.092                                          !
 ! R47   R(19,47)                1.0937                                         !
 ! R48   R(20,22)                1.5317                                         !
 ! R49   R(20,48)                1.0997                                         !
 ! R50   R(20,49)                1.0963                                         !
 ! R51   R(21,50)                1.0949                                         !
 ! R52   R(21,51)                1.0951                                         !
 ! R53   R(22,24)                1.535                                          !
 ! R54   R(22,52)                1.0911                                         !
 ! R55   R(22,53)                1.09                                           !
 ! R56   R(24,54)                1.0248                                         !
 ! A1    A(3,1,4)              120.0105                                         !
 ! A2    A(3,1,26)             119.9832                                         !
 ! A3    A(4,1,26)             120.0062                                         !
 ! A4    A(5,2,6)              120.0025                                         !
 ! A5    A(5,2,27)             120.0181                                         !
 ! A6    A(6,2,27)             119.9794                                         !
 ! A7    A(1,3,7)              120.052                                          !
 ! A8    A(1,3,28)             119.9858                                         !
 ! A9    A(7,3,28)             119.9621                                         !
 ! A10   A(1,4,8)              120.0806                                         !
 ! A11   A(1,4,29)             119.9768                                         !
 ! A12   A(8,4,29)             119.9426                                         !
 ! A13   A(2,5,9)              120.0662                                         !
 ! A14   A(2,5,30)             119.9889                                         !
 ! A15   A(9,5,30)             119.9449                                         !
 ! A16   A(2,6,10)             120.0672                                         !
 ! A17   A(2,6,31)             119.9513                                         !
 ! A18   A(10,6,31)            119.9815                                         !
 ! A19   A(3,7,11)             119.9583                                         !
 ! A20   A(3,7,32)             119.5135                                         !
 ! A21   A(11,7,32)            120.5281                                         !
 ! A22   A(4,8,11)             119.9011                                         !
 ! A23   A(4,8,33)             119.5427                                         !
 ! A24   A(11,8,33)            120.5563                                         !
 ! A25   A(5,9,12)             119.9344                                         !
 ! A26   A(5,9,34)             119.3823                                         !
 ! A27   A(12,9,34)            120.6833                                         !
 ! A28   A(6,10,12)            119.9355                                         !
 ! A29   A(6,10,35)            119.3848                                         !
 ! A30   A(12,10,35)           120.6797                                         !
 ! A31   A(7,11,8)             119.9974                                         !
 ! A32   A(7,11,20)            120.028                                          !
 ! A33   A(8,11,20)            119.9745                                         !
 ! A34   A(9,12,10)            119.9942                                         !
 ! A35   A(9,12,23)            119.9902                                         !
 ! A36   A(10,12,23)           120.0156                                         !
 ! A37   A(21,13,23)           118.3201                                         !
 ! A38   A(21,13,25)           117.3837                                         !
 ! A39   A(23,13,25)           124.2686                                         !
 ! A40   A(16,14,18)           111.8128                                         !
 ! A41   A(16,14,36)           108.9862                                         !
 ! A42   A(16,14,37)           109.8477                                         !
 ! A43   A(18,14,36)           108.8219                                         !
 ! A44   A(18,14,37)           110.5504                                         !
 ! A45   A(36,14,37)           106.6686                                         !
 ! A46   A(17,15,18)           111.8328                                         !
 ! A47   A(17,15,38)           109.8337                                         !
 ! A48   A(17,15,39)           109.087                                          !
 ! A49   A(18,15,38)           110.4901                                         !
 ! A50   A(18,15,39)           108.9022                                         !
 ! A51   A(38,15,39)           106.5381                                         !
 ! A52   A(14,16,24)           110.9457                                         !
 ! A53   A(14,16,40)           111.9731                                         !
 ! A54   A(14,16,41)           110.4096                                         !
 ! A55   A(24,16,40)           107.5594                                         !
 ! A56   A(24,16,41)           107.3112                                         !
 ! A57   A(40,16,41)           108.4708                                         !
 ! A58   A(15,17,24)           110.9654                                         !
 ! A59   A(15,17,42)           110.3375                                         !
 ! A60   A(15,17,43)           112.0917                                         !
 ! A61   A(24,17,42)           107.2609                                         !
 ! A62   A(24,17,43)           107.5934                                         !
 ! A63   A(42,17,43)           108.4148                                         !
 ! A64   A(14,18,15)           111.136                                          !
 ! A65   A(14,18,23)           110.7637                                         !
 ! A66   A(14,18,44)           109.1799                                         !
 ! A67   A(15,18,23)           110.7618                                         !
 ! A68   A(15,18,44)           109.1567                                         !
 ! A69   A(23,18,44)           105.6741                                         !
 ! A70   A(21,19,45)           111.3751                                         !
 ! A71   A(21,19,46)           111.4312                                         !
 ! A72   A(21,19,47)           109.5064                                         !
 ! A73   A(45,19,46)           107.4408                                         !
 ! A74   A(45,19,47)           108.4362                                         !
 ! A75   A(46,19,47)           108.5521                                         !
 ! A76   A(11,20,22)           111.2696                                         !
 ! A77   A(11,20,48)           109.388                                          !
 ! A78   A(11,20,49)           111.2281                                         !
 ! A79   A(22,20,48)           109.2054                                         !
 ! A80   A(22,20,49)           110.768                                          !
 ! A81   A(48,20,49)           104.7584                                         !
 ! A82   A(13,21,19)           111.2198                                         !
 ! A83   A(13,21,50)           109.4746                                         !
 ! A84   A(13,21,51)           109.2085                                         !
 ! A85   A(19,21,50)           109.0784                                         !
 ! A86   A(19,21,51)           108.9559                                         !
 ! A87   A(50,21,51)           108.8663                                         !
 ! A88   A(20,22,24)           111.3379                                         !
 ! A89   A(20,22,52)           110.5131                                         !
 ! A90   A(20,22,53)           112.5642                                         !
 ! A91   A(24,22,52)           105.9701                                         !
 ! A92   A(24,22,53)           106.5389                                         !
 ! A93   A(52,22,53)           109.6366                                         !
 ! A94   A(12,23,13)           118.51                                           !
 ! A95   A(12,23,18)           118.5135                                         !
 ! A96   A(13,23,18)           122.9765                                         !
 ! A97   A(16,24,17)           112.4839                                         !
 ! A98   A(16,24,22)           113.7414                                         !
 ! A99   A(16,24,54)           105.4151                                         !
 ! A100  A(17,24,22)           113.7384                                         !
 ! A101  A(17,24,54)           105.3999                                         !
 ! A102  A(22,24,54)           105.0118                                         !
 ! D1    D(4,1,3,7)             -0.0037         Frozen                          !
 ! D2    D(4,1,3,28)          -179.9309         Frozen                          !
 ! D3    D(26,1,3,7)           179.9183         Frozen                          !
 ! D4    D(26,1,3,28)           -0.0089         Frozen                          !
 ! D5    D(3,1,4,8)              0.0017         Frozen                          !
 ! D6    D(3,1,4,29)           179.9353         Frozen                          !
 ! D7    D(26,1,4,8)          -179.9203         Frozen                          !
 ! D8    D(26,1,4,29)            0.0133         Frozen                          !
 ! D9    D(6,2,5,9)              0.0084         Frozen                          !
 ! D10   D(6,2,5,30)          -179.9468         Frozen                          !
 ! D11   D(27,2,5,9)           179.9471         Frozen                          !
 ! D12   D(27,2,5,30)           -0.0081         Frozen                          !
 ! D13   D(5,2,6,10)            -0.0084         Frozen                          !
 ! D14   D(5,2,6,31)           179.9366         Frozen                          !
 ! D15   D(27,2,6,10)         -179.9471         Frozen                          !
 ! D16   D(27,2,6,31)           -0.0022         Frozen                          !
 ! D17   D(1,3,7,11)             0.0075         Frozen                          !
 ! D18   D(1,3,7,32)           179.9868         Frozen                          !
 ! D19   D(28,3,7,11)          179.9346         Frozen                          !
 ! D20   D(28,3,7,32)           -0.0861         Frozen                          !
 ! D21   D(1,4,8,11)            -0.0034         Frozen                          !
 ! D22   D(1,4,8,33)          -179.992          Frozen                          !
 ! D23   D(29,4,8,11)         -179.937          Frozen                          !
 ! D24   D(29,4,8,33)            0.0744         Frozen                          !
 ! D25   D(2,5,9,12)            -0.006          Frozen                          !
 ! D26   D(2,5,9,34)          -179.9946         Frozen                          !
 ! D27   D(30,5,9,12)          179.9492         Frozen                          !
 ! D28   D(30,5,9,34)           -0.0393         Frozen                          !
 ! D29   D(2,6,10,12)            0.006          Frozen                          !
 ! D30   D(2,6,10,35)         -179.9977         Frozen                          !
 ! D31   D(31,6,10,12)        -179.9389         Frozen                          !
 ! D32   D(31,6,10,35)           0.0573         Frozen                          !
 ! D33   D(3,7,11,8)            -0.0092         Frozen                          !
 ! D34   D(3,7,11,20)          179.9867         Frozen                          !
 ! D35   D(32,7,11,8)         -179.9883         Frozen                          !
 ! D36   D(32,7,11,20)           0.0076         Frozen                          !
 ! D37   D(4,8,11,7)             0.0071         Frozen                          !
 ! D38   D(4,8,11,20)         -179.9887         Frozen                          !
 ! D39   D(33,8,11,7)          179.9956         Frozen                          !
 ! D40   D(33,8,11,20)          -0.0003         Frozen                          !
 ! D41   D(5,9,12,10)            0.0037         Frozen                          !
 ! D42   D(5,9,12,23)         -179.9974         Frozen                          !
 ! D43   D(34,9,12,10)         179.992          Frozen                          !
 ! D44   D(34,9,12,23)          -0.0091         Frozen                          !
 ! D45   D(6,10,12,9)           -0.0037         Frozen                          !
 ! D46   D(6,10,12,23)         179.9975         Frozen                          !
 ! D47   D(35,10,12,9)        -179.9998         Frozen                          !
 ! D48   D(35,10,12,23)          0.0013         Frozen                          !
 ! D49   D(7,11,20,22)         -89.9921         Frozen                          !
 ! D50   D(7,11,20,48)          30.7526         Frozen                          !
 ! D51   D(7,11,20,49)         145.9929         Frozen                          !
 ! D52   D(8,11,20,22)          90.0037         Frozen                          !
 ! D53   D(8,11,20,48)        -149.2515         Frozen                          !
 ! D54   D(8,11,20,49)         -34.0112         Frozen                          !
 ! D55   D(9,12,23,13)          90.0079         Frozen                          !
 ! D56   D(9,12,23,18)         -90.0001         Frozen                          !
 ! D57   D(10,12,23,13)        -89.9932         Frozen                          !
 ! D58   D(10,12,23,18)         89.9988         Frozen                          !
 ! D59   D(23,13,21,19)       -179.3781         Frozen                          !
 ! D60   D(23,13,21,50)         60.0104         Frozen                          !
 ! D61   D(23,13,21,51)        -59.0942         Frozen                          !
 ! D62   D(25,13,21,19)          2.4512         Frozen                          !
 ! D63   D(25,13,21,50)       -118.1602         Frozen                          !
 ! D64   D(25,13,21,51)        122.7352         Frozen                          !
 ! D65   D(21,13,23,12)          1.9692         Frozen                          !
 ! D66   D(21,13,23,18)       -178.0224         Frozen                          !
 ! D67   D(25,13,23,12)       -179.9964         Frozen                          !
 ! D68   D(25,13,23,18)          0.012          Frozen                          !
 ! D69   D(18,14,16,24)         54.4159         Frozen                          !
 ! D70   D(18,14,16,40)        174.6006         Frozen                          !
 ! D71   D(18,14,16,41)        -64.4253         Frozen                          !
 ! D72   D(36,14,16,24)        174.7608         Frozen                          !
 ! D73   D(36,14,16,40)        -65.0545         Frozen                          !
 ! D74   D(36,14,16,41)         55.9197         Frozen                          !
 ! D75   D(37,14,16,24)        -68.7078         Frozen                          !
 ! D76   D(37,14,16,40)         51.4768         Frozen                          !
 ! D77   D(37,14,16,41)        172.451          Frozen                          !
 ! D78   D(16,14,18,15)        -53.5856         Frozen                          !
 ! D79   D(16,14,18,23)       -177.1601         Frozen                          !
 ! D80   D(16,14,18,44)         66.8768         Frozen                          !
 ! D81   D(36,14,18,15)       -174.0264         Frozen                          !
 ! D82   D(36,14,18,23)         62.3991         Frozen                          !
 ! D83   D(36,14,18,44)        -53.5641         Frozen                          !
 ! D84   D(37,14,18,15)         69.1389         Frozen                          !
 ! D85   D(37,14,18,23)        -54.4356         Frozen                          !
 ! D86   D(37,14,18,44)       -170.3988         Frozen                          !
 ! D87   D(18,15,17,24)        -54.3773         Frozen                          !
 ! D88   D(18,15,17,42)         64.3676         Frozen                          !
 ! D89   D(18,15,17,43)       -174.6995         Frozen                          !
 ! D90   D(38,15,17,24)         68.6731         Frozen                          !
 ! D91   D(38,15,17,42)       -172.582          Frozen                          !
 ! D92   D(38,15,17,43)        -51.6491         Frozen                          !
 ! D93   D(39,15,17,24)       -174.9026         Frozen                          !
 ! D94   D(39,15,17,42)        -56.1577         Frozen                          !
 ! D95   D(39,15,17,43)         64.7752         Frozen                          !
 ! D96   D(17,15,18,14)         53.566          Frozen                          !
 ! D97   D(17,15,18,23)        177.1416         Frozen                          !
 ! D98   D(17,15,18,44)        -66.91           Frozen                          !
 ! D99   D(38,15,18,14)        -69.1114         Frozen                          !
 ! D100  D(38,15,18,23)         54.4642         Frozen                          !
 ! D101  D(38,15,18,44)        170.4126         Frozen                          !
 ! D102  D(39,15,18,14)        174.199          Frozen                          !
 ! D103  D(39,15,18,23)        -62.2254         Frozen                          !
 ! D104  D(39,15,18,44)         53.723          Frozen                          !
 ! D105  D(14,16,24,17)        -55.7299         Frozen                          !
 ! D106  D(14,16,24,22)         75.4174         Frozen                          !
 ! D107  D(14,16,24,54)       -170.0759         Frozen                          !
 ! D108  D(40,16,24,17)       -178.5057         Frozen                          !
 ! D109  D(40,16,24,22)        -47.3583         Frozen                          !
 ! D110  D(40,16,24,54)         67.1483         Frozen                          !
 ! D111  D(41,16,24,17)         64.9622         Frozen                          !
 ! D112  D(41,16,24,22)       -163.8905         Frozen                          !
 ! D113  D(41,16,24,54)        -49.3838         Frozen                          !
 ! D114  D(15,17,24,16)         55.7102         Frozen                          !
 ! D115  D(15,17,24,22)        -75.4387         Frozen                          !
 ! D116  D(15,17,24,54)        170.0655         Frozen                          !
 ! D117  D(42,17,24,16)        -64.8738         Frozen                          !
 ! D118  D(42,17,24,22)        163.9774         Frozen                          !
 ! D119  D(42,17,24,54)         49.4815         Frozen                          !
 ! D120  D(43,17,24,16)        178.6677         Frozen                          !
 ! D121  D(43,17,24,22)         47.5189         Frozen                          !
 ! D122  D(43,17,24,54)        -66.977          Frozen                          !
 ! D123  D(14,18,23,12)       -118.1116         Frozen                          !
 ! D124  D(14,18,23,13)         61.88           Frozen                          !
 ! D125  D(15,18,23,12)        118.0989         Frozen                          !
 ! D126  D(15,18,23,13)        -61.9095         Frozen                          !
 ! D127  D(44,18,23,12)          0.0079         Frozen                          !
 ! D128  D(44,18,23,13)        179.9995         Frozen                          !
 ! D129  D(45,19,21,13)         59.1511         Frozen                          !
 ! D130  D(45,19,21,50)        179.9957         Frozen                          !
 ! D131  D(45,19,21,51)        -61.282          Frozen                          !
 ! D132  D(46,19,21,13)        -60.8091         Frozen                          !
 ! D133  D(46,19,21,50)         60.0354         Frozen                          !
 ! D134  D(46,19,21,51)        178.7578         Frozen                          !
 ! D135  D(47,19,21,13)        179.0808         Frozen                          !
 ! D136  D(47,19,21,50)        -60.0746         Frozen                          !
 ! D137  D(47,19,21,51)         58.6477         Frozen                          !
 ! D138  D(11,20,22,24)        177.4858         Frozen                          !
 ! D139  D(11,20,22,52)         59.9993         Frozen                          !
 ! D140  D(11,20,22,53)        -62.9582         Frozen                          !
 ! D141  D(48,20,22,24)         56.6338         Frozen                          !
 ! D142  D(48,20,22,52)        -60.8528         Frozen                          !
 ! D143  D(48,20,22,53)        176.1898         Frozen                          !
 ! D144  D(49,20,22,24)        -58.2388         Frozen                          !
 ! D145  D(49,20,22,52)       -175.7254         Frozen                          !
 ! D146  D(49,20,22,53)         61.3172         Frozen                          !
 ! D147  D(20,22,24,16)         79.8            Frozen                          !
 ! D148  D(20,22,24,17)       -149.6721         Frozen                          !
 ! D149  D(20,22,24,54)        -34.9459         Frozen                          !
 ! D150  D(52,22,24,16)       -159.9941         Frozen                          !
 ! D151  D(52,22,24,17)        -29.4662         Frozen                          !
 ! D152  D(52,22,24,54)         85.26           Frozen                          !
 ! D153  D(53,22,24,16)        -43.2753         Frozen                          !
 ! D154  D(53,22,24,17)         87.2526         Frozen                          !
 ! D155  D(53,22,24,54)       -158.0212         Frozen                          !
 --------------------------------------------------------------------------------
 Stoichiometry    C22H29N2O(1+)
 Framework group  C1[X(C22H29N2O)]
 Deg. of freedom   156
 Full point group                 C1      NOp   1
 Largest Abelian subgroup         C1      NOp   1
 Largest concise Abelian subgroup C1      NOp   1
                         Standard orientation:                         
 ---------------------------------------------------------------------
 Center     Atomic      Atomic             Coordinates (Angstroms)
 Number     Number       Type             X           Y           Z
 ---------------------------------------------------------------------
      1          6           0        6.755222    1.604006   -0.108677
      2          6           0       -6.457999   -0.575964    0.264244
      3          6           0        6.669544    0.500271   -0.959525
      4          6           0        5.849598    1.745548    0.945444
      5          6           0       -5.848624   -0.570884   -0.991716
      6          6           0       -5.696725   -0.340399    1.410428
      7          6           0        5.679390   -0.462556   -0.757841
      8          6           0        4.858612    0.784903    1.149770
      9          6           0       -4.478021   -0.330563   -1.103100
     10          6           0       -4.325925   -0.099764    1.302333
     11          6           0        4.772861   -0.321311    0.296828
     12          6           0       -3.715585   -0.094701    0.044691
     13          6           0       -1.862690    1.458051   -0.221741
     14          6           0       -0.424962   -0.873679    1.189024
     15          6           0       -0.584467   -1.116180   -1.335659
     16          6           0        0.588060   -2.016834    1.226555
     17          6           0        0.429808   -2.257163   -1.282854
     18          6           0       -1.374015   -0.989624   -0.017939
     19          6           0       -2.262562    3.950210   -0.410636
     20          6           0        3.695517   -1.367024    0.517375
     21          6           0       -2.913655    2.577759   -0.215620
     22          6           0        2.419739   -1.022317   -0.257053
     23          7           0       -2.293038    0.154903   -0.069512
     24          7           0        1.350717   -2.110297   -0.084932
     25          8           0       -0.680857    1.790521   -0.328676
     26          1           0        7.526417    2.351327   -0.265725
     27          1           0       -7.523850   -0.762049    0.349869
     28          1           0        7.374150    0.390110   -1.777804
     29          1           0        5.917361    2.603257    1.607189
     30          1           0       -6.440856   -0.753199   -1.882766
     31          1           0       -6.171532   -0.343519    2.386388
     32          1           0        5.620549   -1.318459   -1.425841
     33          1           0        4.158388    0.903827    1.972661
     34          1           0       -4.015420   -0.329074   -2.085704
     35          1           0       -3.744285    0.082142    2.201307
     36          1           0       -1.018599   -0.893700    2.108157
     37          1           0        0.098031    0.084852    1.174743
     38          1           0       -0.074985   -0.177557   -1.568058
     39          1           0       -1.287485   -1.299911   -2.153924
     40          1           0        1.320311   -1.887228    2.024532
     41          1           0        0.078343   -2.973718    1.375759
     42          1           0       -0.084052   -3.218764   -1.181675
     43          1           0        1.054770   -2.292584   -2.177066
     44          1           0       -2.008478   -1.873000    0.106965
     45          1           0       -1.714702    4.000442   -1.354099
     46          1           0       -1.555345    4.173843    0.390829
     47          1           0       -3.035880    4.723519   -0.418148
     48          1           0        4.065789   -2.348100    0.186193
     49          1           0        3.479716   -1.495662    1.584454
     50          1           0       -3.450995    2.568850    0.738368
     51          1           0       -3.628980    2.404920   -1.026574
     52          1           0        2.624702   -0.969506   -1.327437
     53          1           0        1.967915   -0.087921    0.075924
     54          1           0        1.873376   -2.990268   -0.033979
 ---------------------------------------------------------------------
 Rotational constants (GHZ):           0.4665245           0.0891107           0.0812263
 Standard basis: 6-31G(d,p) (6D, 7F)
 There are   520 symmetry adapted cartesian basis functions of A   symmetry.
 There are   520 symmetry adapted basis functions of A   symmetry.
   520 basis functions,   903 primitive gaussians,   520 cartesian basis functions
    91 alpha electrons       91 beta electrons
       nuclear repulsion energy      2134.1089622888 Hartrees.
 NAtoms=   54 NActive=   54 NUniq=   54 SFac= 1.00D+00 NAtFMM=   60 NAOKFM=F Big=F
 Integral buffers will be    131072 words long.
 Raffenetti 1 integral format.
 Two-electron integral symmetry is turned on.
 ------------------------------------------------------------------------------
 Polarizable Continuum Model (PCM)
 =================================
 Model                : PCM.
 Atomic radii         : UFF (Universal Force Field).
 Polarization charges : Total charges.
 Charge compensation  : None.
 Solution method      : On-the-fly selection.
 Cavity type          : Scaled VdW (van der Waals Surface) (Alpha=1.100).
 Cavity algorithm     : GePol (No added spheres)
                        Default sphere list used, NSphG=   54.
                        Lebedev-Laikov grids with approx.  5.0 points / Ang**2.
                        Smoothing algorithm: York/Karplus (Gamma=1.0000).
                        Polarization charges: spherical gaussians, with
                                              point-specific exponents (IZeta= 3).
                        Self-potential: point-specific (ISelfS= 7).
                        Self-field    : sphere-specific E.n sum rule (ISelfD= 2).
 Solvent              : Water, Eps=  78.355300 Eps(inf)=   1.777849
 ------------------------------------------------------------------------------
 One-electron integrals computed using PRISM.
 NBasis=   520 RedAO= T EigKep=  4.47D-04  NBF=   520
 NBsUse=   520 1.00D-06 EigRej= -1.00D+00 NBFU=   520
 Initial guess from the checkpoint file:  "G2.chk"
 B after Tr=    -0.000000    0.000000   -0.000000
         Rot=    1.000000    0.000000    0.000000    0.000000 Ang=   0.00 deg.
 Requested convergence on RMS density matrix=1.00D-08 within 128 cycles.
 Requested convergence on MAX density matrix=1.00D-06.
 Requested convergence on             energy=1.00D-06.
 No special actions if energy rises.
 Inv3:  Mode=1 IEnd=    38298987.
 Iteration    1 A*A^-1 deviation from unit magnitude is 5.55D-15 for   3545.
 Iteration    1 A*A^-1 deviation from orthogonality  is 5.11D-15 for   3568   1592.
 Iteration    1 A^-1*A deviation from unit magnitude is 5.77D-15 for   3545.
 Iteration    1 A^-1*A deviation from orthogonality  is 7.37D-15 for   2109   2096.
 Error on total polarization charges =  0.01224
 SCF Done:  E(RHF) =  -1033.69935801     A.U. after   13 cycles
            NFock= 13  Conv=0.81D-08     -V/T= 2.0022

 **********************************************************************

            Population analysis using the SCF density.

 **********************************************************************

 Orbital symmetries:
       Occupied  (A) (A) (A) (A) (A) (A) (A) (A) (A) (A) (A) (A)
                 (A) (A) (A) (A) (A) (A) (A) (A) (A) (A) (A) (A)
                 (A) (A) (A) (A) (A) (A) (A) (A) (A) (A) (A) (A)
                 (A) (A) (A) (A) (A) (A) (A) (A) (A) (A) (A) (A)
                 (A) (A) (A) (A) (A) (A) (A) (A) (A) (A) (A) (A)
                 (A) (A) (A) (A) (A) (A) (A) (A) (A) (A) (A) (A)
                 (A) (A) (A) (A) (A) (A) (A) (A) (A) (A) (A) (A)
                 (A) (A) (A) (A) (A) (A) (A)
       Virtual   (A) (A) (A) (A) (A) (A) (A) (A) (A) (A) (A) (A)
                 (A) (A) (A) (A) (A) (A) (A) (A) (A) (A) (A) (A)
                 (A) (A) (A) (A) (A) (A) (A) (A) (A) (A) (A) (A)
                 (A) (A) (A) (A) (A) (A) (A) (A) (A) (A) (A) (A)
                 (A) (A) (A) (A) (A) (A) (A) (A) (A) (A) (A) (A)
                 (A) (A) (A) (A) (A) (A) (A) (A) (A) (A) (A) (A)
                 (A) (A) (A) (A) (A) (A) (A) (A) (A) (A) (A) (A)
                 (A) (A) (A) (A) (A) (A) (A) (A) (A) (A) (A) (A)
                 (A) (A) (A) (A) (A) (A) (A) (A) (A) (A) (A) (A)
                 (A) (A) (A) (A) (A) (A) (A) (A) (A) (A) (A) (A)
                 (A) (A) (A) (A) (A) (A) (A) (A) (A) (A) (A) (A)
                 (A) (A) (A) (A) (A) (A) (A) (A) (A) (A) (A) (A)
                 (A) (A) (A) (A) (A) (A) (A) (A) (A) (A) (A) (A)
                 (A) (A) (A) (A) (A) (A) (A) (A) (A) (A) (A) (A)
                 (A) (A) (A) (A) (A) (A) (A) (A) (A) (A) (A) (A)
                 (A) (A) (A) (A) (A) (A) (A) (A) (A) (A) (A) (A)
                 (A) (A) (A) (A) (A) (A) (A) (A) (A) (A) (A) (A)
                 (A) (A) (A) (A) (A) (A) (A) (A) (A) (A) (A) (A)
                 (A) (A) (A) (A) (A) (A) (A) (A) (A) (A) (A) (A)
                 (A) (A) (A) (A) (A) (A) (A) (A) (A) (A) (A) (A)
                 (A) (A) (A) (A) (A) (A) (A) (A) (A) (A) (A) (A)
                 (A) (A) (A) (A) (A) (A) (A) (A) (A) (A) (A) (A)
                 (A) (A) (A) (A) (A) (A) (A) (A) (A) (A) (A) (A)
                 (A) (A) (A) (A) (A) (A) (A) (A) (A) (A) (A) (A)
                 (A) (A) (A) (A) (A) (A) (A) (A) (A) (A) (A) (A)
                 (A) (A) (A) (A) (A) (A) (A) (A) (A) (A) (A) (A)
                 (A) (A) (A) (A) (A) (A) (A) (A) (A) (A) (A) (A)
                 (A) (A) (A) (A) (A) (A) (A) (A) (A) (A) (A) (A)
                 (A) (A) (A) (A) (A) (A) (A) (A) (A) (A) (A) (A)
                 (A) (A) (A) (A) (A) (A) (A) (A) (A) (A) (A) (A)
                 (A) (A) (A) (A) (A) (A) (A) (A) (A) (A) (A) (A)
                 (A) (A) (A) (A) (A) (A) (A) (A) (A) (A) (A) (A)
                 (A) (A) (A) (A) (A) (A) (A) (A) (A) (A) (A) (A)
                 (A) (A) (A) (A) (A) (A) (A) (A) (A) (A) (A) (A)
                 (A) (A) (A) (A) (A) (A) (A) (A) (A) (A) (A) (A)
                 (A) (A) (A) (A) (A) (A) (A) (A) (A)
 The electronic state is 1-A.
 Alpha  occ. eigenvalues --  -20.53708 -15.70638 -15.60560 -11.36444 -11.30676
 Alpha  occ. eigenvalues --  -11.30496 -11.30448 -11.29196 -11.28644 -11.25704
 Alpha  occ. eigenvalues --  -11.25369 -11.24731 -11.24728 -11.24592 -11.24561
 Alpha  occ. eigenvalues --  -11.24541 -11.24499 -11.24397 -11.24173 -11.24158
 Alpha  occ. eigenvalues --  -11.24063 -11.24034 -11.23880 -11.23760 -11.21617
 Alpha  occ. eigenvalues --   -1.38654  -1.33454  -1.26542  -1.16125  -1.15253
 Alpha  occ. eigenvalues --   -1.10499  -1.07538  -1.06318  -1.04223  -1.02383
 Alpha  occ. eigenvalues --   -1.01759  -1.01305  -0.99891  -0.93402  -0.90383
 Alpha  occ. eigenvalues --   -0.89364  -0.87083  -0.83787  -0.83733  -0.83052
 Alpha  occ. eigenvalues --   -0.80541  -0.80184  -0.75833  -0.74430  -0.71463
 Alpha  occ. eigenvalues --   -0.70367  -0.69229  -0.68841  -0.67674  -0.65798
 Alpha  occ. eigenvalues --   -0.65691  -0.64547  -0.63458  -0.62540  -0.62452
 Alpha  occ. eigenvalues --   -0.62152  -0.61633  -0.60355  -0.59317  -0.58995
 Alpha  occ. eigenvalues --   -0.58683  -0.58447  -0.57961  -0.56759  -0.55661
 Alpha  occ. eigenvalues --   -0.54699  -0.53305  -0.52620  -0.52524  -0.52142
 Alpha  occ. eigenvalues --   -0.51614  -0.50649  -0.50574  -0.50394  -0.49735
 Alpha  occ. eigenvalues --   -0.49516  -0.49141  -0.48957  -0.48519  -0.48219
 Alpha  occ. eigenvalues --   -0.42114  -0.38839  -0.34431  -0.34317  -0.34019
 Alpha  occ. eigenvalues --   -0.33485
 Alpha virt. eigenvalues --    0.12615   0.12744   0.13021   0.13364   0.18077
 Alpha virt. eigenvalues --    0.18394   0.21521   0.22246   0.23073   0.23706
 Alpha virt. eigenvalues --    0.23994   0.24765   0.25854   0.26003   0.26747
 Alpha virt. eigenvalues --    0.27242   0.28027   0.29041   0.29585   0.29820
 Alpha virt. eigenvalues --    0.30365   0.30635   0.31252   0.31532   0.31864
 Alpha virt. eigenvalues --    0.32049   0.32725   0.32764   0.33026   0.33483
 Alpha virt. eigenvalues --    0.33999   0.34300   0.34940   0.35011   0.35575
 Alpha virt. eigenvalues --    0.35918   0.37229   0.37476   0.37922   0.38962
 Alpha virt. eigenvalues --    0.39434   0.40121   0.41104   0.41964   0.43213
 Alpha virt. eigenvalues --    0.43552   0.44435   0.45358   0.46982   0.47352
 Alpha virt. eigenvalues --    0.47984   0.48035   0.49892   0.50718   0.51651
 Alpha virt. eigenvalues --    0.52049   0.52344   0.58435   0.59710   0.63231
 Alpha virt. eigenvalues --    0.64365   0.67095   0.67286   0.67813   0.68592
 Alpha virt. eigenvalues --    0.70956   0.71155   0.71863   0.72621   0.72901
 Alpha virt. eigenvalues --    0.74363   0.74801   0.75212   0.75726   0.76688
 Alpha virt. eigenvalues --    0.77308   0.77850   0.78318   0.79336   0.79645
 Alpha virt. eigenvalues --    0.79844   0.80212   0.81439   0.82027   0.82355
 Alpha virt. eigenvalues --    0.82499   0.82698   0.83064   0.83357   0.83497
 Alpha virt. eigenvalues --    0.83851   0.84024   0.85656   0.86040   0.87588
 Alpha virt. eigenvalues --    0.88214   0.88464   0.89019   0.89675   0.90007
 Alpha virt. eigenvalues --    0.92249   0.92291   0.93079   0.94109   0.95323
 Alpha virt. eigenvalues --    0.95540   0.96317   0.97409   0.99581   1.00259
 Alpha virt. eigenvalues --    1.01086   1.01874   1.03064   1.03484   1.04597
 Alpha virt. eigenvalues --    1.05201   1.06067   1.06330   1.06662   1.06769
 Alpha virt. eigenvalues --    1.07576   1.07895   1.08049   1.08293   1.08660
 Alpha virt. eigenvalues --    1.08943   1.09370   1.09534   1.10161   1.11161
 Alpha virt. eigenvalues --    1.11607   1.12374   1.12805   1.13485   1.13922
 Alpha virt. eigenvalues --    1.14272   1.14517   1.15282   1.16647   1.16723
 Alpha virt. eigenvalues --    1.17058   1.18052   1.18571   1.19261   1.19534
 Alpha virt. eigenvalues --    1.20089   1.20181   1.20951   1.21250   1.21845
 Alpha virt. eigenvalues --    1.23077   1.23397   1.24149   1.24688   1.25939
 Alpha virt. eigenvalues --    1.26806   1.27701   1.27986   1.30661   1.32716
 Alpha virt. eigenvalues --    1.34429   1.36257   1.36578   1.37711   1.40029
 Alpha virt. eigenvalues --    1.40064   1.41426   1.41503   1.42569   1.43796
 Alpha virt. eigenvalues --    1.45351   1.47857   1.48940   1.49503   1.50641
 Alpha virt. eigenvalues --    1.50844   1.56413   1.57750   1.58331   1.59342
 Alpha virt. eigenvalues --    1.60544   1.61381   1.62014   1.63622   1.64281
 Alpha virt. eigenvalues --    1.65789   1.66594   1.66701   1.66960   1.67534
 Alpha virt. eigenvalues --    1.68488   1.68695   1.69016   1.69108   1.69362
 Alpha virt. eigenvalues --    1.69858   1.72515   1.72937   1.75598   1.76599
 Alpha virt. eigenvalues --    1.78196   1.80260   1.85711   1.87314   1.89786
 Alpha virt. eigenvalues --    1.93402   1.95040   1.96268   1.97969   1.99126
 Alpha virt. eigenvalues --    2.00580   2.01284   2.02494   2.03679   2.05029
 Alpha virt. eigenvalues --    2.05270   2.05457   2.06516   2.07198   2.08561
 Alpha virt. eigenvalues --    2.08877   2.09882   2.10185   2.10913   2.11740
 Alpha virt. eigenvalues --    2.11902   2.13126   2.13983   2.14871   2.15489
 Alpha virt. eigenvalues --    2.15668   2.18138   2.18343   2.18873   2.19474
 Alpha virt. eigenvalues --    2.20484   2.21808   2.22994   2.23483   2.23762
 Alpha virt. eigenvalues --    2.24131   2.24693   2.25333   2.26004   2.26459
 Alpha virt. eigenvalues --    2.26869   2.27009   2.27245   2.28359   2.29045
 Alpha virt. eigenvalues --    2.29729   2.30672   2.31346   2.34342   2.35277
 Alpha virt. eigenvalues --    2.35656   2.35744   2.38062   2.38513   2.38814
 Alpha virt. eigenvalues --    2.39118   2.40250   2.41320   2.41684   2.42405
 Alpha virt. eigenvalues --    2.43601   2.44249   2.45503   2.45807   2.46646
 Alpha virt. eigenvalues --    2.47642   2.50625   2.51379   2.52742   2.53286
 Alpha virt. eigenvalues --    2.54611   2.56589   2.57715   2.59018   2.59534
 Alpha virt. eigenvalues --    2.60089   2.61355   2.61447   2.62014   2.62186
 Alpha virt. eigenvalues --    2.62682   2.63306   2.65094   2.65770   2.65881
 Alpha virt. eigenvalues --    2.66596   2.67457   2.68687   2.69080   2.69437
 Alpha virt. eigenvalues --    2.69617   2.69799   2.72042   2.72076   2.72716
 Alpha virt. eigenvalues --    2.72937   2.75432   2.75658   2.76011   2.76181
 Alpha virt. eigenvalues --    2.76370   2.76589   2.77011   2.79480   2.80253
 Alpha virt. eigenvalues --    2.80916   2.81342   2.82237   2.82671   2.82882
 Alpha virt. eigenvalues --    2.83313   2.84020   2.84760   2.85194   2.86319
 Alpha virt. eigenvalues --    2.87339   2.90037   2.90746   2.91528   2.91916
 Alpha virt. eigenvalues --    2.91977   2.93333   2.95989   2.96546   2.97421
 Alpha virt. eigenvalues --    2.98052   2.98838   2.99573   3.00997   3.02046
 Alpha virt. eigenvalues --    3.03761   3.04560   3.05697   3.06170   3.07194
 Alpha virt. eigenvalues --    3.07523   3.07877   3.09926   3.10834   3.11676
 Alpha virt. eigenvalues --    3.12563   3.13989   3.14288   3.14975   3.16587
 Alpha virt. eigenvalues --    3.18029   3.18089   3.18926   3.19493   3.20157
 Alpha virt. eigenvalues --    3.21047   3.21817   3.22770   3.24797   3.25661
 Alpha virt. eigenvalues --    3.26220   3.27480   3.28229   3.31642   3.35413
 Alpha virt. eigenvalues --    3.36634   3.38945   3.41039   3.41267   3.44159
 Alpha virt. eigenvalues --    3.53931   3.54042   3.54607   3.58357   3.59192
 Alpha virt. eigenvalues --    3.59957   3.60124   3.60794   3.60935   3.62240
 Alpha virt. eigenvalues --    3.65363   3.65664   3.68636   3.69196   3.70177
 Alpha virt. eigenvalues --    3.71750   3.72978   3.73810   3.76268   3.79305
 Alpha virt. eigenvalues --    3.80092   3.80672   3.81424   3.82386   3.84133
 Alpha virt. eigenvalues --    3.85940   3.87205   3.87800   3.88149   3.90868
 Alpha virt. eigenvalues --    3.91588   3.92815   4.27667   4.28562   4.52359
 Alpha virt. eigenvalues --    4.54822   4.55176   4.56904   4.57757   4.58353
 Alpha virt. eigenvalues --    4.61188   4.65380   4.67801   4.75073   4.79193
 Alpha virt. eigenvalues --    4.82835   4.85303   4.85835   4.86160   4.90727
 Alpha virt. eigenvalues --    4.92875   4.95476   5.02173   5.08927   5.09194
 Alpha virt. eigenvalues --    5.15879   5.20498   5.26109   5.28168
          Condensed to atoms (all electrons):
 Mulliken charges:
               1
     1  C   -0.168619
     2  C   -0.158922
     3  C   -0.162946
     4  C   -0.162996
     5  C   -0.168634
     6  C   -0.168639
     7  C   -0.161192
     8  C   -0.158931
     9  C   -0.138940
    10  C   -0.139183
    11  C   -0.038038
    12  C    0.188670
    13  C    0.796942
    14  C   -0.246714
    15  C   -0.247895
    16  C   -0.079555
    17  C   -0.077798
    18  C    0.111370
    19  C   -0.319097
    20  C   -0.269801
    21  C   -0.318685
    22  C   -0.036212
    23  N   -0.777917
    24  N   -0.648119
    25  O   -0.680353
    26  H    0.170720
    27  H    0.176526
    28  H    0.172588
    29  H    0.172406
    30  H    0.179055
    31  H    0.179036
    32  H    0.175247
    33  H    0.175357
    34  H    0.185966
    35  H    0.185927
    36  H    0.168716
    37  H    0.175932
    38  H    0.177339
    39  H    0.167495
    40  H    0.197951
    41  H    0.198121
    42  H    0.195635
    43  H    0.201775
    44  H    0.173495
    45  H    0.121843
    46  H    0.122328
    47  H    0.115663
    48  H    0.163822
    49  H    0.166702
    50  H    0.161573
    51  H    0.159128
    52  H    0.195301
    53  H    0.195392
    54  H    0.401165
 Sum of Mulliken charges =   1.00000
 Mulliken charges with hydrogens summed into heavy atoms:
               1
     1  C    0.002102
     2  C    0.017603
     3  C    0.009642
     4  C    0.009410
     5  C    0.010421
     6  C    0.010397
     7  C    0.014055
     8  C    0.016426
     9  C    0.047026
    10  C    0.046745
    11  C   -0.038038
    12  C    0.188670
    13  C    0.796942
    14  C    0.097935
    15  C    0.096939
    16  C    0.316517
    17  C    0.319612
    18  C    0.284865
    19  C    0.040737
    20  C    0.060722
    21  C    0.002016
    22  C    0.354481
    23  N   -0.777917
    24  N   -0.246954
    25  O   -0.680353
 Electronic spatial extent (au):  <R**2>=          13007.1388
 Charge=              1.0000 electrons
 Dipole moment (field-independent basis, Debye):
    X=              1.2446    Y=            -11.1396    Z=              0.2277  Tot=             11.2112
 Quadrupole moment (field-independent basis, Debye-Ang):
   XX=            -99.2941   YY=           -125.6213   ZZ=           -131.7979
   XY=             -9.1728   XZ=             -3.8751   YZ=              5.5510
 Traceless Quadrupole moment (field-independent basis, Debye-Ang):
   XX=             19.6104   YY=             -6.7169   ZZ=            -12.8935
   XY=             -9.1728   XZ=             -3.8751   YZ=              5.5510
 Octapole moment (field-independent basis, Debye-Ang**2):
  XXX=            -79.9117  YYY=            -72.3784  ZZZ=             -0.1485  XYY=             51.2873
  XXY=              1.0034  XXZ=            -39.3977  XZZ=            -17.0308  YZZ=            -16.5106
  YYZ=              1.8665  XYZ=             12.4118
 Hexadecapole moment (field-independent basis, Debye-Ang**3):
 XXXX=         -12928.9660 YYYY=          -2207.1470 ZZZZ=           -842.7144 XXXY=            382.1394
 XXXZ=           -386.7900 YYYX=           -114.6104 YYYZ=             29.8000 ZZZX=            -22.1614
 ZZZY=             17.9272 XXYY=          -2693.0150 XXZZ=          -2366.6614 YYZZ=           -519.7320
 XXYZ=             89.0515 YYXZ=             29.4963 ZZXY=             -5.2839
 N-N= 2.134108962289D+03 E-N=-6.655586444353D+03  KE= 1.031471662884D+03
 Merz-Kollman atomic radii used.

 **********************************************************************

            Electrostatic Properties Using The SCF Density

 **********************************************************************

       Atomic Center    1 is at   6.755222  1.604006 -0.108677
       Atomic Center    2 is at  -6.457999 -0.575964  0.264244
       Atomic Center    3 is at   6.669544  0.500271 -0.959525
       Atomic Center    4 is at   5.849598  1.745548  0.945444
       Atomic Center    5 is at  -5.848624 -0.570884 -0.991716
       Atomic Center    6 is at  -5.696725 -0.340399  1.410428
       Atomic Center    7 is at   5.679390 -0.462556 -0.757841
       Atomic Center    8 is at   4.858612  0.784903  1.149770
       Atomic Center    9 is at  -4.478021 -0.330563 -1.103100
       Atomic Center   10 is at  -4.325925 -0.099764  1.302333
       Atomic Center   11 is at   4.772861 -0.321311  0.296828
       Atomic Center   12 is at  -3.715585 -0.094701  0.044691
       Atomic Center   13 is at  -1.862690  1.458051 -0.221741
       Atomic Center   14 is at  -0.424962 -0.873679  1.189024
       Atomic Center   15 is at  -0.584467 -1.116180 -1.335659
       Atomic Center   16 is at   0.588060 -2.016834  1.226555
       Atomic Center   17 is at   0.429808 -2.257163 -1.282854
       Atomic Center   18 is at  -1.374015 -0.989624 -0.017939
       Atomic Center   19 is at  -2.262562  3.950210 -0.410636
       Atomic Center   20 is at   3.695517 -1.367024  0.517375
       Atomic Center   21 is at  -2.913655  2.577759 -0.215620
       Atomic Center   22 is at   2.419739 -1.022317 -0.257053
       Atomic Center   23 is at  -2.293038  0.154903 -0.069512
       Atomic Center   24 is at   1.350717 -2.110297 -0.084932
       Atomic Center   25 is at  -0.680857  1.790521 -0.328676
       Atomic Center   26 is at   7.526417  2.351327 -0.265725
       Atomic Center   27 is at  -7.523850 -0.762049  0.349869
       Atomic Center   28 is at   7.374150  0.390110 -1.777804
       Atomic Center   29 is at   5.917361  2.603257  1.607189
       Atomic Center   30 is at  -6.440856 -0.753199 -1.882766
       Atomic Center   31 is at  -6.171532 -0.343519  2.386388
       Atomic Center   32 is at   5.620549 -1.318459 -1.425841
       Atomic Center   33 is at   4.158388  0.903827  1.972661
       Atomic Center   34 is at  -4.015420 -0.329074 -2.085704
       Atomic Center   35 is at  -3.744285  0.082142  2.201307
       Atomic Center   36 is at  -1.018599 -0.893700  2.108157
       Atomic Center   37 is at   0.098031  0.084852  1.174743
       Atomic Center   38 is at  -0.074985 -0.177557 -1.568058
       Atomic Center   39 is at  -1.287485 -1.299911 -2.153924
       Atomic Center   40 is at   1.320311 -1.887228  2.024532
       Atomic Center   41 is at   0.078343 -2.973718  1.375759
       Atomic Center   42 is at  -0.084052 -3.218764 -1.181675
       Atomic Center   43 is at   1.054770 -2.292584 -2.177066
       Atomic Center   44 is at  -2.008478 -1.873000  0.106965
       Atomic Center   45 is at  -1.714702  4.000442 -1.354099
       Atomic Center   46 is at  -1.555345  4.173843  0.390829
       Atomic Center   47 is at  -3.035880  4.723519 -0.418148
       Atomic Center   48 is at   4.065789 -2.348100  0.186193
       Atomic Center   49 is at   3.479716 -1.495662  1.584454
       Atomic Center   50 is at  -3.450995  2.568850  0.738368
       Atomic Center   51 is at  -3.628980  2.404920 -1.026574
       Atomic Center   52 is at   2.624702 -0.969506 -1.327437
       Atomic Center   53 is at   1.967915 -0.087921  0.075924
       Atomic Center   54 is at   1.873376 -2.990268 -0.033979
    1917 points will be used for fitting atomic charges
 Fitting point charges to electrostatic potential
 Charges from ESP fit, RMS=   0.00134 RRMS=   0.01410:
 ESP charges:
               1
     1  C   -0.177287
     2  C   -0.146008
     3  C   -0.100056
     4  C   -0.109575
     5  C   -0.148984
     6  C   -0.170814
     7  C   -0.298128
     8  C   -0.299887
     9  C   -0.286084
    10  C   -0.277236
    11  C    0.298390
    12  C    0.501818
    13  C    0.895342
    14  C   -0.025753
    15  C    0.008768
    16  C   -0.287346
    17  C   -0.376157
    18  C    0.400184
    19  C   -0.269314
    20  C   -0.403506
    21  C   -0.022243
    22  C   -0.025436
    23  N   -0.963079
    24  N    0.150482
    25  O   -0.677392
    26  H    0.150561
    27  H    0.157446
    28  H    0.145066
    29  H    0.148380
    30  H    0.163477
    31  H    0.170698
    32  H    0.183228
    33  H    0.188895
    34  H    0.198368
    35  H    0.199089
    36  H    0.076646
    37  H    0.070317
    38  H    0.041985
    39  H    0.081147
    40  H    0.167532
    41  H    0.146371
    42  H    0.166508
    43  H    0.190728
    44  H    0.044604
    45  H    0.066656
    46  H    0.065162
    47  H    0.078268
    48  H    0.141163
    49  H    0.138791
    50  H    0.042489
    51  H    0.040275
    52  H    0.116817
    53  H    0.136384
    54  H    0.292248
 Sum of ESP charges =   1.00000
 ESP charges with hydrogens summed into heavy atoms:
               1
     1  C   -0.026726
     2  C    0.011437
     3  C    0.045010
     4  C    0.038805
     5  C    0.014493
     6  C   -0.000116
     7  C   -0.114900
     8  C   -0.110992
     9  C   -0.087715
    10  C   -0.078147
    11  C    0.298390
    12  C    0.501818
    13  C    0.895342
    14  C    0.121210
    15  C    0.131900
    16  C    0.026557
    17  C   -0.018922
    18  C    0.444788
    19  C   -0.059227
    20  C   -0.123552
    21  C    0.060521
    22  C    0.227765
    23  N   -0.963079
    24  N    0.442730
    25  O   -0.677392
 Charge=   1.00000 Dipole=     1.3025   -11.1516     0.2434 Tot=    11.2301
 Writing Antechamber ESP formatted file "G2.esp"
 -----------------------------------------------------------------

              Electrostatic Properties (Atomic Units)

 -----------------------------------------------------------------
    Center     Electric         -------- Electric Field --------
               Potential          X             Y             Z
 -----------------------------------------------------------------
    1 Atom    -14.655956
    2 Atom    -14.641187
    3 Atom    -14.647718
    4 Atom    -14.649777
    5 Atom    -14.635795
    6 Atom    -14.635626
    7 Atom    -14.630174
    8 Atom    -14.633346
    9 Atom    -14.623143
   10 Atom    -14.622819
   11 Atom    -14.607790
   12 Atom    -14.575762
   13 Atom    -14.505841
   14 Atom    -14.580118
   15 Atom    -14.581563
   16 Atom    -14.500216
   17 Atom    -14.500544
   18 Atom    -14.536950
   19 Atom    -14.674987
   20 Atom    -14.568181
   21 Atom    -14.639645
   22 Atom    -14.512508
   23 Atom    -18.186741
   24 Atom    -18.038667
   25 Atom    -22.268296
   26 Atom     -1.042471
   27 Atom     -1.028866
   28 Atom     -1.032548
   29 Atom     -1.035310
   30 Atom     -1.021204
   31 Atom     -1.020930
   32 Atom     -0.999588
   33 Atom     -1.004927
   34 Atom     -0.996315
   35 Atom     -0.995623
   36 Atom     -0.975492
   37 Atom     -0.992739
   38 Atom     -0.995965
   39 Atom     -0.977522
   40 Atom     -0.926117
   41 Atom     -0.922266
   42 Atom     -0.923422
   43 Atom     -0.926554
   44 Atom     -0.970726
   45 Atom     -1.076224
   46 Atom     -1.076261
   47 Atom     -1.069798
   48 Atom     -0.963233
   49 Atom     -0.966555
   50 Atom     -1.028585
   51 Atom     -1.030780
   52 Atom     -0.941334
   53 Atom     -0.955233
   54 Atom     -0.789968
 -----------------------------------------------------------------

 Test job not archived.
 1\1\GINC-CPU199\SP\RHF\6-31G(d,p)\C22H29N2O1(1+)\FEBRERMA\05-Feb-2024\
 0\\# HF/6-31G** SCRF=(Solvent=Water) POP=MK iop(6/50=1) geom=allcheck 
 guess=read\\G2\\1,1\C,0,8.2184292542,2.7396370074,1.4664458692\C,0,-2.
 2965105293,-3.7379796458,-3.7255742637\C,0,7.1816688235,3.5469851875,1
 .9384946643\C,0,8.0852179797,2.0741410355,0.2454905437\C,0,-2.37446344
 1,-3.3725029551,-2.3805286665\C,0,-1.1487733829,-3.4433672531,-4.46359
 2507\C,0,6.0115033646,3.6900358721,1.1912543131\C,0,6.9167819359,2.214
 9809474,-0.5038848416\C,0,-1.3055568507,-2.7121980522,-1.7721296094\C,
 0,-0.0781977025,-2.7831647297,-3.8580498219\C,0,5.8777033863,3.0242158
 679,-0.03056875\C,0,-0.1561623123,-2.4170876614,-2.51116005\C,0,1.9379
 00593,-2.4886632577,-1.2762412535\C,0,2.2206325755,0.2414880557,-2.676
 4630296\C,0,0.9323728365,0.3162586432,-0.487155073\C,0,2.3105752818,1.
 7666855554,-2.6660899214\C,0,1.0307151315,1.8406295019,-0.4897571832\C
 ,0,0.9817659554,-0.2637879782,-1.9143531146\C,0,2.9887798026,-4.693298
 7198,-0.611657813\C,0,4.6060268223,3.17838161,-0.8441411392\C,0,1.8254
 996372,-4.0186954429,-1.3446419101\C,0,3.5729242015,2.1119666832,-0.46
 78039614\N,0,0.9539301851,-1.7318862725,-1.8809380814\N,0,2.2633218299
 ,2.30413688,-1.245072123\O,0,2.926173199,-2.0176505081,-0.710410237\H,
 0,9.1283733149,2.6302521724,2.0477637737\H,0,-3.1277003351,-4.25210158
 45,-4.197591184\H,0,7.2860556282,4.0648041954,2.8867315089\H,0,8.89195
 27701,1.4474900882,-0.1214564174\H,0,-3.2665541356,-3.6024316504,-1.80
 67209802\H,0,-1.0886464874,-3.7288109458,-5.5089897459\H,0,5.209592827
 ,4.3207593324,1.5672638079\H,0,6.8223881509,1.6930323949,-1.4527076953
 \H,0,-1.3780507348,-2.4330845737,-0.7250614445\H,0,0.8093543529,-2.559
 4292385,-4.4426376032\H,0,2.1630155497,-0.1047288362,-3.713007897\H,0,
 3.1318721451,-0.1865414917,-2.2534486989\H,0,1.733097546,-0.1059620697
 ,0.1253505999\H,0,-0.0097062649,0.0192463141,-0.0161772984\H,0,3.23448
 17585,2.1241552449,-3.1225637439\H,0,1.4651561883,2.2025418164,-3.2073
 816499\H,0,0.1599395433,2.2773015902,-0.9897905873\H,0,1.089471715,2.2
 499330549,0.5204242874\H,0,0.079029955,0.0369003756,-2.4557870354\H,0,
 3.0208705561,-4.3993236742,0.4396954809\H,0,3.9495937767,-4.4251039347
 ,-1.055979256\H,0,2.8724369166,-5.7795046318,-0.6636741001\H,0,4.17771
 79517,4.1755424055,-0.6666193132\H,0,4.8172380553,3.1525803778,-1.9195
 483155\H,0,1.8286849839,-4.3385051488,-2.3918379576\H,0,0.8838182825,-
 4.331835349,-0.8816208776\H,0,3.309601717,2.1905261762,0.5881364121\H,
 0,3.9172786331,1.1008930646,-0.6852105971\H,0,2.1580770632,3.318944154
 9,-1.3410255121\\Version=ES64L-G16RevA.03\State=1-A\HF=-1033.699358\RM
 SD=8.077e-09\Dipole=-2.1001158,3.7430284,-1.0171226\Quadrupole=-1.0851
 855,9.0952585,-8.010073,8.0079072,3.5743238,9.2524859\PG=C01 [X(C22H29
 N2O1)]\\@


 THE FIRST AND LAST THING REQUIRED OF GENIUS IS THE LOVE OF TRUTH.

                          -- GOETHE
 Job cpu time:       0 days  0 hours 13 minutes 52.2 seconds.
 Elapsed time:       0 days  0 hours  1 minutes 45.7 seconds.
 File lengths (MBytes):  RWF=    358 Int=      0 D2E=      0 Chk=     24 Scr=      1
 Normal termination of Gaussian 16 at Mon Feb  5 16:02:53 2024.
