 Entering Gaussian System, Link 0=g16
 Initial command:
 /opt/ebsofts/Gaussian/g16/l1.exe "/scratch/Gau-3728589.inp" -scrdir="/scratch/"
 Entering Link 1 = /opt/ebsofts/Gaussian/g16/l1.exe PID=   3728590.
  
 Copyright (c) 1988,1990,1992,1993,1995,1998,2003,2009,2016,
            Gaussian, Inc.  All Rights Reserved.
  
 This is part of the Gaussian(R) 16 program.  It is based on
 the Gaussian(R) 09 system (copyright 2009, Gaussian, Inc.),
 the Gaussian(R) 03 system (copyright 2003, Gaussian, Inc.),
 the Gaussian(R) 98 system (copyright 1998, Gaussian, Inc.),
 the Gaussian(R) 94 system (copyright 1995, Gaussian, Inc.),
 the Gaussian 92(TM) system (copyright 1992, Gaussian, Inc.),
 the Gaussian 90(TM) system (copyright 1990, Gaussian, Inc.),
 the Gaussian 88(TM) system (copyright 1988, Gaussian, Inc.),
 the Gaussian 86(TM) system (copyright 1986, Carnegie Mellon
 University), and the Gaussian 82(TM) system (copyright 1983,
 Carnegie Mellon University). Gaussian is a federally registered
 trademark of Gaussian, Inc.
  
 This software contains proprietary and confidential information,
 including trade secrets, belonging to Gaussian, Inc.
  
 This software is provided under written license and may be
 used, copied, transmitted, or stored only in accord with that
 written license.
  
 The following legend is applicable only to US Government
 contracts under FAR:
  
                    RESTRICTED RIGHTS LEGEND
  
 Use, reproduction and disclosure by the US Government is
 subject to restrictions as set forth in subparagraphs (a)
 and (c) of the Commercial Computer Software - Restricted
 Rights clause in FAR 52.227-19.
  
 Gaussian, Inc.
 340 Quinnipiac St., Bldg. 40, Wallingford CT 06492
  
  
 ---------------------------------------------------------------
 Warning -- This program may not be used in any manner that
 competes with the business of Gaussian, Inc. or will provide
 assistance to any competitor of Gaussian, Inc.  The licensee
 of this program is prohibited from giving any competitor of
 Gaussian, Inc. access to this program.  By using this program,
 the user acknowledges that Gaussian, Inc. is engaged in the
 business of creating and licensing software in the field of
 computational chemistry and represents and warrants to the
 licensee that it is not a competitor of Gaussian, Inc. and that
 it will not use this program in any manner prohibited above.
 ---------------------------------------------------------------
  

 Cite this work as:
 Gaussian 16, Revision A.03,
 M. J. Frisch, G. W. Trucks, H. B. Schlegel, G. E. Scuseria, 
 M. A. Robb, J. R. Cheeseman, G. Scalmani, V. Barone, 
 G. A. Petersson, H. Nakatsuji, X. Li, M. Caricato, A. V. Marenich, 
 J. Bloino, B. G. Janesko, R. Gomperts, B. Mennucci, H. P. Hratchian, 
 J. V. Ortiz, A. F. Izmaylov, J. L. Sonnenberg, D. Williams-Young, 
 F. Ding, F. Lipparini, F. Egidi, J. Goings, B. Peng, A. Petrone, 
 T. Henderson, D. Ranasinghe, V. G. Zakrzewski, J. Gao, N. Rega, 
 G. Zheng, W. Liang, M. Hada, M. Ehara, K. Toyota, R. Fukuda, 
 J. Hasegawa, M. Ishida, T. Nakajima, Y. Honda, O. Kitao, H. Nakai, 
 T. Vreven, K. Throssell, J. A. Montgomery, Jr., J. E. Peralta, 
 F. Ogliaro, M. J. Bearpark, J. J. Heyd, E. N. Brothers, K. N. Kudin, 
 V. N. Staroverov, T. A. Keith, R. Kobayashi, J. Normand, 
 K. Raghavachari, A. P. Rendell, J. C. Burant, S. S. Iyengar, 
 J. Tomasi, M. Cossi, J. M. Millam, M. Klene, C. Adamo, R. Cammi, 
 J. W. Ochterski, R. L. Martin, K. Morokuma, O. Farkas, 
 J. B. Foresman, and D. J. Fox, Gaussian, Inc., Wallingford CT, 2016.
 
 ******************************************
 Gaussian 16:  ES64L-G16RevA.03 25-Dec-2016
                 5-Feb-2024 
 ******************************************
 %Chk=G9.chk
 %nprocshared=8
 Will use up to    8 processors via shared memory.
 %mem=1GB
 --------------------------------
 # B3LYP/6-31G** opt=Modredundant
 --------------------------------
 1/18=120,19=15,26=3,38=1/1,3;
 2/9=110,12=2,17=6,18=5,40=1/2;
 3/5=1,6=6,7=101,11=2,25=1,30=1,71=1,74=-5/1,2,3;
 4//1;
 5/5=2,38=5/2;
 6/7=2,8=2,9=2,10=2,28=1/1;
 7//1,2,3,16;
 1/18=20,19=15,26=3/3(2);
 2/9=110/2;
 99//99;
 2/9=110/2;
 3/5=1,6=6,7=101,11=2,25=1,30=1,71=1,74=-5/1,2,3;
 4/5=5,16=3,69=1/1;
 5/5=2,38=5/2;
 7//1,2,3,16;
 1/18=20,19=15,26=3/3(-5);
 2/9=110/2;
 6/7=2,8=2,9=2,10=2,19=2,28=1/1;
 99/9=1/99;
 --
 G9
 --
 Symbolic Z-matrix:
 Charge =  1 Multiplicity = 1
 C                     9.7901    37.8639   28.9083 
 C                     7.7302    38.8831   29.9557 
 C                     8.2878    36.5265   30.4359 
 C                     9.8046    39.5529   30.789 
 C                     10.3661   37.1795   31.2726 
 C                     9.1498    39.1745   29.4566 
 C                     9.7319    36.7136   29.958 
 C                     8.0159    37.8897   31.095 
 C                     9.4196    38.3306   31.6292 
 N                     9.4274    38.6243   33.0612 
 H                     9.261     37.5535   27.9994 
 H                     10.8345   38.0552   28.6349 
 H                     7.2586    39.7926   30.3473 
 H                     7.0809    38.4751   29.1744 
 H                     7.5973    36.2918   29.6194 
 H                     8.2219    35.7206   31.1769 
 H                     10.8864   39.697    30.6987 
 H                     9.3725    40.4787   31.1892 
 H                     10.3417   36.3805   32.0242 
 H                     11.4075   37.4941   31.1474 
 H                     9.1832    39.9828   28.7215 
 H                     10.175    35.7904   29.5757 
 H                     7.2111    37.8498   31.8335 
 H                     10.2301   38.1867   33.5433 
 H                     8.5738    38.2809   33.5324 
 H                     9.4839    39.6391   33.2495 
 
 The following ModRedundant input section has been read:
 D    *       *       *       *    F                                           
 

 GradGradGradGradGradGradGradGradGradGradGradGradGradGradGradGradGradGrad
 Berny optimization.
 Initialization pass.
                           ----------------------------
                           !    Initial Parameters    !
                           ! (Angstroms and Degrees)  !
 --------------------------                            --------------------------
 ! Name  Definition              Value          Derivative Info.                !
 --------------------------------------------------------------------------------
 ! R1    R(1,6)                  1.5583         estimate D2E/DX2                !
 ! R2    R(1,7)                  1.5583         estimate D2E/DX2                !
 ! R3    R(1,11)                 1.0965         estimate D2E/DX2                !
 ! R4    R(1,12)                 1.0964         estimate D2E/DX2                !
 ! R5    R(2,6)                  1.5327         estimate D2E/DX2                !
 ! R6    R(2,8)                  1.5383         estimate D2E/DX2                !
 ! R7    R(2,13)                 1.0968         estimate D2E/DX2                !
 ! R8    R(2,14)                 1.0948         estimate D2E/DX2                !
 ! R9    R(3,7)                  1.5326         estimate D2E/DX2                !
 ! R10   R(3,8)                  1.5384         estimate D2E/DX2                !
 ! R11   R(3,15)                 1.0948         estimate D2E/DX2                !
 ! R12   R(3,16)                 1.0968         estimate D2E/DX2                !
 ! R13   R(4,6)                  1.5321         estimate D2E/DX2                !
 ! R14   R(4,9)                  1.5324         estimate D2E/DX2                !
 ! R15   R(4,17)                 1.0951         estimate D2E/DX2                !
 ! R16   R(4,18)                 1.0973         estimate D2E/DX2                !
 ! R17   R(5,7)                  1.5321         estimate D2E/DX2                !
 ! R18   R(5,9)                  1.5323         estimate D2E/DX2                !
 ! R19   R(5,19)                 1.0972         estimate D2E/DX2                !
 ! R20   R(5,20)                 1.0951         estimate D2E/DX2                !
 ! R21   R(6,21)                 1.0931         estimate D2E/DX2                !
 ! R22   R(7,22)                 1.0931         estimate D2E/DX2                !
 ! R23   R(8,9)                  1.5653         estimate D2E/DX2                !
 ! R24   R(8,23)                 1.093          estimate D2E/DX2                !
 ! R25   R(9,10)                 1.4618         estimate D2E/DX2                !
 ! R26   R(10,24)                1.0336         estimate D2E/DX2                !
 ! R27   R(10,25)                1.0337         estimate D2E/DX2                !
 ! R28   R(10,26)                1.0337         estimate D2E/DX2                !
 ! A1    A(6,1,7)              111.6209         estimate D2E/DX2                !
 ! A2    A(6,1,11)             109.3574         estimate D2E/DX2                !
 ! A3    A(6,1,12)             109.4145         estimate D2E/DX2                !
 ! A4    A(7,1,11)             109.3516         estimate D2E/DX2                !
 ! A5    A(7,1,12)             109.4106         estimate D2E/DX2                !
 ! A6    A(11,1,12)            107.5976         estimate D2E/DX2                !
 ! A7    A(6,2,8)              101.0649         estimate D2E/DX2                !
 ! A8    A(6,2,13)             110.9071         estimate D2E/DX2                !
 ! A9    A(6,2,14)             112.8168         estimate D2E/DX2                !
 ! A10   A(8,2,13)             110.5436         estimate D2E/DX2                !
 ! A11   A(8,2,14)             113.4557         estimate D2E/DX2                !
 ! A12   A(13,2,14)            107.989          estimate D2E/DX2                !
 ! A13   A(7,3,8)              101.067          estimate D2E/DX2                !
 ! A14   A(7,3,15)             112.8247         estimate D2E/DX2                !
 ! A15   A(7,3,16)             110.9159         estimate D2E/DX2                !
 ! A16   A(8,3,15)             113.4546         estimate D2E/DX2                !
 ! A17   A(8,3,16)             110.5508         estimate D2E/DX2                !
 ! A18   A(15,3,16)            107.9666         estimate D2E/DX2                !
 ! A19   A(6,4,9)               99.9305         estimate D2E/DX2                !
 ! A20   A(6,4,17)             112.5195         estimate D2E/DX2                !
 ! A21   A(6,4,18)             110.933          estimate D2E/DX2                !
 ! A22   A(9,4,17)             113.4763         estimate D2E/DX2                !
 ! A23   A(9,4,18)             111.968          estimate D2E/DX2                !
 ! A24   A(17,4,18)            107.943          estimate D2E/DX2                !
 ! A25   A(7,5,9)               99.9289         estimate D2E/DX2                !
 ! A26   A(7,5,19)             110.9224         estimate D2E/DX2                !
 ! A27   A(7,5,20)             112.514          estimate D2E/DX2                !
 ! A28   A(9,5,19)             111.9552         estimate D2E/DX2                !
 ! A29   A(9,5,20)             113.4663         estimate D2E/DX2                !
 ! A30   A(19,5,20)            107.979          estimate D2E/DX2                !
 ! A31   A(1,6,2)              109.5874         estimate D2E/DX2                !
 ! A32   A(1,6,4)              109.7619         estimate D2E/DX2                !
 ! A33   A(1,6,21)             111.885          estimate D2E/DX2                !
 ! A34   A(2,6,4)               99.1846         estimate D2E/DX2                !
 ! A35   A(2,6,21)             112.822          estimate D2E/DX2                !
 ! A36   A(4,6,21)             112.9022         estimate D2E/DX2                !
 ! A37   A(1,7,3)              109.5939         estimate D2E/DX2                !
 ! A38   A(1,7,5)              109.7574         estimate D2E/DX2                !
 ! A39   A(1,7,22)             111.883          estimate D2E/DX2                !
 ! A40   A(3,7,5)               99.1839         estimate D2E/DX2                !
 ! A41   A(3,7,22)             112.8253         estimate D2E/DX2                !
 ! A42   A(5,7,22)             112.9            estimate D2E/DX2                !
 ! A43   A(2,8,3)              106.7231         estimate D2E/DX2                !
 ! A44   A(2,8,9)              103.7336         estimate D2E/DX2                !
 ! A45   A(2,8,23)             112.7817         estimate D2E/DX2                !
 ! A46   A(3,8,9)              103.728          estimate D2E/DX2                !
 ! A47   A(3,8,23)             112.7842         estimate D2E/DX2                !
 ! A48   A(9,8,23)             116.1036         estimate D2E/DX2                !
 ! A49   A(4,9,5)              108.446          estimate D2E/DX2                !
 ! A50   A(4,9,8)              105.2398         estimate D2E/DX2                !
 ! A51   A(4,9,10)             112.0561         estimate D2E/DX2                !
 ! A52   A(5,9,8)              105.2424         estimate D2E/DX2                !
 ! A53   A(5,9,10)             112.0612         estimate D2E/DX2                !
 ! A54   A(8,9,10)             113.3091         estimate D2E/DX2                !
 ! A55   A(9,10,24)            112.0868         estimate D2E/DX2                !
 ! A56   A(9,10,25)            112.0477         estimate D2E/DX2                !
 ! A57   A(9,10,26)            112.0853         estimate D2E/DX2                !
 ! A58   A(24,10,25)           106.7408         estimate D2E/DX2                !
 ! A59   A(24,10,26)           106.7526         estimate D2E/DX2                !
 ! A60   A(25,10,26)           106.7521         estimate D2E/DX2                !
 ! D1    D(7,1,6,2)            -53.7582         Frozen                          !
 ! D2    D(7,1,6,4)             54.1723         Frozen                          !
 ! D3    D(7,1,6,21)          -179.6747         Frozen                          !
 ! D4    D(11,1,6,2)            67.376          Frozen                          !
 ! D5    D(11,1,6,4)           175.3065         Frozen                          !
 ! D6    D(11,1,6,21)          -58.5404         Frozen                          !
 ! D7    D(12,1,6,2)          -175.0054         Frozen                          !
 ! D8    D(12,1,6,4)           -67.0749         Frozen                          !
 ! D9    D(12,1,6,21)           59.0781         Frozen                          !
 ! D10   D(6,1,7,3)             53.7576         Frozen                          !
 ! D11   D(6,1,7,5)            -54.1731         Frozen                          !
 ! D12   D(6,1,7,22)           179.6816         Frozen                          !
 ! D13   D(11,1,7,3)           -67.3801         Frozen                          !
 ! D14   D(11,1,7,5)          -175.3108         Frozen                          !
 ! D15   D(11,1,7,22)           58.544          Frozen                          !
 ! D16   D(12,1,7,3)           175.007          Frozen                          !
 ! D17   D(12,1,7,5)            67.0764         Frozen                          !
 ! D18   D(12,1,7,22)          -59.0689         Frozen                          !
 ! D19   D(8,2,6,1)             62.7624         Frozen                          !
 ! D20   D(8,2,6,4)            -52.1401         Frozen                          !
 ! D21   D(8,2,6,21)          -171.8584         Frozen                          !
 ! D22   D(13,2,6,1)           179.9865         Frozen                          !
 ! D23   D(13,2,6,4)            65.084          Frozen                          !
 ! D24   D(13,2,6,21)          -54.6343         Frozen                          !
 ! D25   D(14,2,6,1)           -58.723          Frozen                          !
 ! D26   D(14,2,6,4)          -173.6255         Frozen                          !
 ! D27   D(14,2,6,21)           66.6562         Frozen                          !
 ! D28   D(6,2,8,3)            -78.3397         Frozen                          !
 ! D29   D(6,2,8,9)             30.8391         Frozen                          !
 ! D30   D(6,2,8,23)           157.2743         Frozen                          !
 ! D31   D(13,2,8,3)           164.1705         Frozen                          !
 ! D32   D(13,2,8,9)           -86.6508         Frozen                          !
 ! D33   D(13,2,8,23)           39.7845         Frozen                          !
 ! D34   D(14,2,8,3)            42.696          Frozen                          !
 ! D35   D(14,2,8,9)           151.8748         Frozen                          !
 ! D36   D(14,2,8,23)          -81.69           Frozen                          !
 ! D37   D(8,3,7,1)            -62.7546         Frozen                          !
 ! D38   D(8,3,7,5)             52.1447         Frozen                          !
 ! D39   D(8,3,7,22)           171.8615         Frozen                          !
 ! D40   D(15,3,7,1)            58.7346         Frozen                          !
 ! D41   D(15,3,7,5)           173.634          Frozen                          !
 ! D42   D(15,3,7,22)          -66.6492         Frozen                          !
 ! D43   D(16,3,7,1)          -179.9918         Frozen                          !
 ! D44   D(16,3,7,5)           -65.0924         Frozen                          !
 ! D45   D(16,3,7,22)           54.6244         Frozen                          !
 ! D46   D(7,3,8,2)             78.3365         Frozen                          !
 ! D47   D(7,3,8,9)            -30.8462         Frozen                          !
 ! D48   D(7,3,8,23)          -157.279          Frozen                          !
 ! D49   D(15,3,8,2)           -42.7094         Frozen                          !
 ! D50   D(15,3,8,9)          -151.8921         Frozen                          !
 ! D51   D(15,3,8,23)           81.675          Frozen                          !
 ! D52   D(16,3,8,2)          -164.1594         Frozen                          !
 ! D53   D(16,3,8,9)            86.6579         Frozen                          !
 ! D54   D(16,3,8,23)          -39.7749         Frozen                          !
 ! D55   D(9,4,6,1)            -62.1534         Frozen                          !
 ! D56   D(9,4,6,2)             52.6142         Frozen                          !
 ! D57   D(9,4,6,21)           172.2733         Frozen                          !
 ! D58   D(17,4,6,1)            58.5372         Frozen                          !
 ! D59   D(17,4,6,2)           173.3049         Frozen                          !
 ! D60   D(17,4,6,21)          -67.0361         Frozen                          !
 ! D61   D(18,4,6,1)           179.5792         Frozen                          !
 ! D62   D(18,4,6,2)           -65.6532         Frozen                          !
 ! D63   D(18,4,6,21)           54.0059         Frozen                          !
 ! D64   D(6,4,9,5)             78.9875         Frozen                          !
 ! D65   D(6,4,9,8)            -33.2295         Frozen                          !
 ! D66   D(6,4,9,10)          -156.7943         Frozen                          !
 ! D67   D(17,4,9,5)           -41.0094         Frozen                          !
 ! D68   D(17,4,9,8)          -153.2264         Frozen                          !
 ! D69   D(17,4,9,10)           83.2088         Frozen                          !
 ! D70   D(18,4,9,5)          -163.5138         Frozen                          !
 ! D71   D(18,4,9,8)            84.2692         Frozen                          !
 ! D72   D(18,4,9,10)          -39.2956         Frozen                          !
 ! D73   D(9,5,7,1)             62.1575         Frozen                          !
 ! D74   D(9,5,7,3)            -52.6155         Frozen                          !
 ! D75   D(9,5,7,22)          -172.277          Frozen                          !
 ! D76   D(19,5,7,1)          -179.5949         Frozen                          !
 ! D77   D(19,5,7,3)            65.6321         Frozen                          !
 ! D78   D(19,5,7,22)          -54.0294         Frozen                          !
 ! D79   D(20,5,7,1)           -58.5179         Frozen                          !
 ! D80   D(20,5,7,3)          -173.291          Frozen                          !
 ! D81   D(20,5,7,22)           67.0475         Frozen                          !
 ! D82   D(7,5,9,4)            -78.9899         Frozen                          !
 ! D83   D(7,5,9,8)             33.2253         Frozen                          !
 ! D84   D(7,5,9,10)           156.7949         Frozen                          !
 ! D85   D(19,5,9,4)           163.5297         Frozen                          !
 ! D86   D(19,5,9,8)           -84.2551         Frozen                          !
 ! D87   D(19,5,9,10)           39.3145         Frozen                          !
 ! D88   D(20,5,9,4)            40.995          Frozen                          !
 ! D89   D(20,5,9,8)           153.2102         Frozen                          !
 ! D90   D(20,5,9,10)          -83.2202         Frozen                          !
 ! D91   D(2,8,9,4)              1.5418         Frozen                          !
 ! D92   D(2,8,9,5)           -112.9231         Frozen                          !
 ! D93   D(2,8,9,10)           124.3053         Frozen                          !
 ! D94   D(3,8,9,4)            112.9267         Frozen                          !
 ! D95   D(3,8,9,5)             -1.5383         Frozen                          !
 ! D96   D(3,8,9,10)          -124.3099         Frozen                          !
 ! D97   D(23,8,9,4)          -122.7662         Frozen                          !
 ! D98   D(23,8,9,5)           122.7688         Frozen                          !
 ! D99   D(23,8,9,10)           -0.0028         Frozen                          !
 ! D100  D(4,9,10,24)         -107.4231         Frozen                          !
 ! D101  D(4,9,10,25)          132.5953         Frozen                          !
 ! D102  D(4,9,10,26)           12.6002         Frozen                          !
 ! D103  D(5,9,10,24)           14.756          Frozen                          !
 ! D104  D(5,9,10,25)         -105.2257         Frozen                          !
 ! D105  D(5,9,10,26)          134.7792         Frozen                          !
 ! D106  D(8,9,10,24)          133.6699         Frozen                          !
 ! D107  D(8,9,10,25)           13.6883         Frozen                          !
 ! D108  D(8,9,10,26)         -106.3068         Frozen                          !
 --------------------------------------------------------------------------------
 Trust Radius=3.00D-01 FncErr=1.00D-07 GrdErr=1.00D-06 EigMax=2.50D+02 EigMin=1.00D-04
 Number of steps in this run=    156 maximum allowed number of steps=    156.
 GradGradGradGradGradGradGradGradGradGradGradGradGradGradGradGradGradGrad

                          Input orientation:                          
 ---------------------------------------------------------------------
 Center     Atomic      Atomic             Coordinates (Angstroms)
 Number     Number       Type             X           Y           Z
 ---------------------------------------------------------------------
      1          6           0        9.790100   37.863899   28.908300
      2          6           0        7.730200   38.883099   29.955700
      3          6           0        8.287800   36.526501   30.435900
      4          6           0        9.804600   39.552898   30.789000
      5          6           0       10.366100   37.179501   31.272600
      6          6           0        9.149800   39.174500   29.456600
      7          6           0        9.731900   36.713600   29.958000
      8          6           0        8.015900   37.889702   31.094999
      9          6           0        9.419600   38.330601   31.629200
     10          7           0        9.427400   38.624298   33.061199
     11          1           0        9.261000   37.553501   27.999399
     12          1           0       10.834500   38.055199   28.634899
     13          1           0        7.258600   39.792599   30.347300
     14          1           0        7.080900   38.475101   29.174400
     15          1           0        7.597300   36.291801   29.619400
     16          1           0        8.221900   35.720600   31.176901
     17          1           0       10.886400   39.696999   30.698700
     18          1           0        9.372500   40.478699   31.189199
     19          1           0       10.341700   36.380501   32.024200
     20          1           0       11.407500   37.494099   31.147400
     21          1           0        9.183200   39.982800   28.721500
     22          1           0       10.175000   35.790401   29.575701
     23          1           0        7.211100   37.849800   31.833500
     24          1           0       10.230100   38.186699   33.543301
     25          1           0        8.573800   38.280899   33.532398
     26          1           0        9.483900   39.639099   33.249500
 ---------------------------------------------------------------------
                    Distance matrix (angstroms):
                    1          2          3          4          5
     1  C    0.000000
     2  C    2.525669   0.000000
     3  C    2.525688   2.468818   0.000000
     4  C    2.527837   2.333700   3.403592   0.000000
     5  C    2.527863   3.403592   2.333625   2.486396   0.000000
     6  C    1.558298   1.532736   2.951944   1.532070   2.959267
     7  C    1.558347   2.951870   1.532586   2.959300   1.532138
     8  C    2.816044   1.538332   1.538395   2.461565   2.461578
     9  C    2.785386   2.441297   2.441252   1.532374   1.532337
    10  N    4.237491   3.548463   3.548469   2.483438   2.483482
    11  H    1.096538   2.817498   2.817514   3.474905   3.474905
    12  H    1.096410   3.473703   3.473644   2.818501   2.818459
    13  H    3.492721   1.096790   3.425565   2.595125   4.164255
    14  H    2.790007   1.094752   2.616301   3.344715   4.107744
    15  H    2.790256   2.616407   1.094782   4.107906   3.344747
    16  H    3.492783   3.425566   1.096769   4.164362   2.595216
    17  H    2.787052   3.343065   4.107778   1.095085   2.633984
    18  H    3.494863   2.600886   4.167002   1.097259   3.446579
    19  H    3.494791   4.166728   2.600484   3.446491   1.097223
    20  H    2.786809   4.107555   3.342904   2.633703   1.095062
    21  H    2.212004   2.200864   3.960671   2.201252   3.970623
    22  H    2.212005   3.960584   2.200752   3.970601   2.201269
    23  H    3.899774   2.205290   2.205377   3.273800   3.273826
    24  H    4.667016   4.427793   4.023025   3.103824   2.487775
    25  H    4.799537   3.723852   3.570435   3.264825   3.087411
    26  H    4.700118   3.807377   4.362942   2.482809   3.276589
                    6          7          8          9         10
     6  C    0.000000
     7  C    2.578036   0.000000
     8  C    2.370820   2.370789   0.000000
     9  C    2.346305   2.346302   1.565291   0.000000
    10  N    3.656900   3.656957   2.529408   1.461828   0.000000
    11  H    2.182530   2.182498   3.353512   3.715440   5.176496
    12  H    2.183172   2.183165   3.744861   3.323195   4.679309
    13  H    2.179915   3.968501   2.180269   2.906996   3.665224
    14  H    2.202077   3.277913   2.214863   3.393588   4.542635
    15  H    3.278218   2.202063   2.214928   3.393638   4.542663
    16  H    3.968609   2.179878   2.180401   2.907089   3.665416
    17  H    2.198089   3.283622   3.415135   2.210062   2.976705
    18  H    2.180007   3.977561   2.924405   2.193204   2.635565
    19  H    3.977389   2.179907   2.924115   2.192985   2.635514
    20  H    3.283255   2.198064   3.414996   2.209890   2.976705
    21  H    1.093086   3.538032   3.373003   3.352665   4.553916
    22  H    3.537986   1.093063   3.372987   3.352626   4.553962
    23  H    3.341114   3.341090   1.093014   2.269445   2.649354
    24  H    4.340959   3.908018   3.314373   2.083603   1.033558
    25  H    4.212176   4.071111   2.530850   2.083269   1.033724
    26  H    3.835827   4.410671   3.139632   2.083668   1.033669
                   11         12         13         14         15
    11  H    0.000000
    12  H    1.769594   0.000000
    13  H    3.812585   4.328734   0.000000
    14  H    2.642501   3.815350   1.772871   0.000000
    15  H    2.642761   3.815531   3.591677   2.287246   0.000000
    16  H    3.812581   4.328719   4.265836   3.591541   1.772627
    17  H    3.810871   2.637703   3.646033   4.277658   4.855764
    18  H    4.329439   3.812512   2.376573   3.650377   4.811000
    19  H    4.329303   3.812457   4.894886   4.810564   3.650022
    20  H    3.810630   2.637390   4.810055   4.855364   4.277608
    21  H    2.535543   2.539673   2.526556   2.626393   4.116403
    22  H    2.535477   2.539559   5.011820   4.116080   2.626376
    23  H    4.357776   4.837589   2.446531   2.734733   2.734730
    24  H    5.663475   4.947222   4.650070   5.393323   5.091097
    25  H    5.622760   5.398815   3.762956   4.610706   4.496845
    26  H    5.653580   5.062351   3.660367   4.871934   5.285952
                   16         17         18         19         20
    16  H    0.000000
    17  H    4.810404   0.000000
    18  H    4.895257   1.773002   0.000000
    19  H    2.376328   3.612867   4.293227   0.000000
    20  H    3.646123   2.307736   3.612590   1.773361   0.000000
    21  H    5.011930   2.625241   2.524141   5.022600   4.126274
    22  H    2.526522   4.126588   5.022700   2.524115   2.625239
    23  H    2.446698   4.267053   3.463796   3.463504   4.266970
    24  H    3.964134   3.286866   3.395665   2.362726   2.757953
    25  H    3.496760   3.922155   3.310412   3.001940   3.786440
    26  H    4.609007   2.911518   2.227595   3.585477   3.566523
                   21         22         23         24         25
    21  H    0.000000
    22  H    4.391985   0.000000
    23  H    4.257160   4.257169   0.000000
    24  H    5.250880   4.635421   3.485869   0.000000
    25  H    5.139317   4.941849   2.220147   1.659012   0.000000
    26  H    4.550971   5.365342   3.220600   1.659096   1.659223
                   26
    26  H    0.000000
 Stoichiometry    C9H16N(1+)
 Framework group  C1[X(C9H16N)]
 Deg. of freedom    72
 Full point group                 C1      NOp   1
 Largest Abelian subgroup         C1      NOp   1
 Largest concise Abelian subgroup C1      NOp   1
                         Standard orientation:                         
 ---------------------------------------------------------------------
 Center     Atomic      Atomic             Coordinates (Angstroms)
 Number     Number       Type             X           Y           Z
 ---------------------------------------------------------------------
      1          6           0       -1.713782    0.000224   -0.861082
      2          6           0       -0.737558    1.234264    1.114553
      3          6           0       -0.737652   -1.234554    1.114163
      4          6           0        0.487273    1.243286   -0.871866
      5          6           0        0.487147   -1.243110   -0.872191
      6          6           0       -0.969453    1.289119   -0.399546
      7          6           0       -0.969625   -1.288917   -0.399790
      8          6           0        0.173221   -0.000158    1.229210
      9          6           0        0.970591   -0.000058   -0.117763
     10          7           0        2.420520   -0.000090    0.068368
     11          1           0       -2.730034    0.000197   -0.449227
     12          1           0       -1.799111    0.000298   -1.954167
     13          1           0       -0.213834    2.132694    1.463101
     14          1           0       -1.668382    1.143374    1.683577
     15          1           0       -1.668385   -1.143872    1.683423
     16          1           0       -0.214158   -2.133143    1.462580
     17          1           0        0.572780    1.154237   -1.959970
     18          1           0        1.028111    2.146687   -0.563096
     19          1           0        1.027806   -2.146541   -0.563323
     20          1           0        0.572500   -1.153499   -1.960238
     21          1           0       -1.490908    2.196186   -0.716013
     22          1           0       -1.491171   -2.195800   -0.716554
     23          1           0        0.772865   -0.000287    2.143052
     24          1           0        2.890181   -0.692787   -0.538124
     25          1           0        2.686864   -0.226903    1.041097
     26          1           0        2.840255    0.919215   -0.148821
 ---------------------------------------------------------------------
 Rotational constants (GHZ):           1.9656584           1.5449745           1.3775811
 Standard basis: 6-31G(d,p) (6D, 7F)
 There are   230 symmetry adapted cartesian basis functions of A   symmetry.
 There are   230 symmetry adapted basis functions of A   symmetry.
   230 basis functions,   392 primitive gaussians,   230 cartesian basis functions
    38 alpha electrons       38 beta electrons
       nuclear repulsion energy       611.4879286899 Hartrees.
 NAtoms=   26 NActive=   26 NUniq=   26 SFac= 1.00D+00 NAtFMM=   60 NAOKFM=F Big=F
 Integral buffers will be    131072 words long.
 Raffenetti 2 integral format.
 Two-electron integral symmetry is turned on.
 One-electron integrals computed using PRISM.
 NBasis=   230 RedAO= T EigKep=  1.44D-03  NBF=   230
 NBsUse=   230 1.00D-06 EigRej= -1.00D+00 NBFU=   230
 ExpMin= 1.61D-01 ExpMax= 4.17D+03 ExpMxC= 6.27D+02 IAcc=3 IRadAn=         5 AccDes= 0.00D+00
 Harris functional with IExCor=  402 and IRadAn=       5 diagonalized for initial guess.
 HarFok:  IExCor=  402 AccDes= 0.00D+00 IRadAn=         5 IDoV= 1 UseB2=F ITyADJ=14
 ICtDFT=  3500011 ScaDFX=  1.000000  1.000000  1.000000  1.000000
 FoFCou: FMM=F IPFlag=           0 FMFlag=      100000 FMFlg1=           0
         NFxFlg=           0 DoJE=T BraDBF=F KetDBF=T FulRan=T
         wScrn=  0.000000 ICntrl=       500 IOpCl=  0 I1Cent=   200000004 NGrid=           0
         NMat0=    1 NMatS0=      1 NMatT0=    0 NMatD0=    1 NMtDS0=    0 NMtDT0=    0
 Petite list used in FoFCou.
 Requested convergence on RMS density matrix=1.00D-08 within 128 cycles.
 Requested convergence on MAX density matrix=1.00D-06.
 Requested convergence on             energy=1.00D-06.
 No special actions if energy rises.
 Integral accuracy reduced to 1.0D-05 until final iterations.
 Initial convergence to 1.0D-05 achieved.  Increase integral accuracy.
 SCF Done:  E(RB3LYP) =  -407.134217627     A.U. after   12 cycles
            NFock= 12  Conv=0.55D-08     -V/T= 2.0092

 **********************************************************************

            Population analysis using the SCF density.

 **********************************************************************

 Orbital symmetries:
       Occupied  (A) (A) (A) (A) (A) (A) (A) (A) (A) (A) (A) (A)
                 (A) (A) (A) (A) (A) (A) (A) (A) (A) (A) (A) (A)
                 (A) (A) (A) (A) (A) (A) (A) (A) (A) (A) (A) (A)
                 (A) (A)
       Virtual   (A) (A) (A) (A) (A) (A) (A) (A) (A) (A) (A) (A)
                 (A) (A) (A) (A) (A) (A) (A) (A) (A) (A) (A) (A)
                 (A) (A) (A) (A) (A) (A) (A) (A) (A) (A) (A) (A)
                 (A) (A) (A) (A) (A) (A) (A) (A) (A) (A) (A) (A)
                 (A) (A) (A) (A) (A) (A) (A) (A) (A) (A) (A) (A)
                 (A) (A) (A) (A) (A) (A) (A) (A) (A) (A) (A) (A)
                 (A) (A) (A) (A) (A) (A) (A) (A) (A) (A) (A) (A)
                 (A) (A) (A) (A) (A) (A) (A) (A) (A) (A) (A) (A)
                 (A) (A) (A) (A) (A) (A) (A) (A) (A) (A) (A) (A)
                 (A) (A) (A) (A) (A) (A) (A) (A) (A) (A) (A) (A)
                 (A) (A) (A) (A) (A) (A) (A) (A) (A) (A) (A) (A)
                 (A) (A) (A) (A) (A) (A) (A) (A) (A) (A) (A) (A)
                 (A) (A) (A) (A) (A) (A) (A) (A) (A) (A) (A) (A)
                 (A) (A) (A) (A) (A) (A) (A) (A) (A) (A) (A) (A)
                 (A) (A) (A) (A) (A) (A) (A) (A) (A) (A) (A) (A)
                 (A) (A) (A) (A) (A) (A) (A) (A) (A) (A) (A) (A)
 The electronic state is 1-A.
 Alpha  occ. eigenvalues --  -14.64817 -10.41018 -10.34370 -10.34052 -10.34036
 Alpha  occ. eigenvalues --  -10.32679 -10.32677 -10.31405 -10.31383 -10.31237
 Alpha  occ. eigenvalues --   -1.19854  -1.03923  -0.93184  -0.90368  -0.89124
 Alpha  occ. eigenvalues --   -0.81344  -0.79590  -0.76753  -0.76559  -0.72790
 Alpha  occ. eigenvalues --   -0.71519  -0.69077  -0.66426  -0.60572  -0.60517
 Alpha  occ. eigenvalues --   -0.59090  -0.55591  -0.55377  -0.53498  -0.52551
 Alpha  occ. eigenvalues --   -0.50942  -0.50362  -0.48322  -0.47391  -0.45852
 Alpha  occ. eigenvalues --   -0.45549  -0.43723  -0.43350
 Alpha virt. eigenvalues --   -0.14923  -0.10291  -0.10051  -0.06857  -0.03497
 Alpha virt. eigenvalues --   -0.02135  -0.01273   0.00556   0.01066   0.01187
 Alpha virt. eigenvalues --    0.02711   0.03536   0.04189   0.04375   0.05289
 Alpha virt. eigenvalues --    0.05999   0.06913   0.07599   0.08219   0.09130
 Alpha virt. eigenvalues --    0.10127   0.10596   0.11001   0.12088   0.14485
 Alpha virt. eigenvalues --    0.16730   0.17855   0.18392   0.34179   0.35205
 Alpha virt. eigenvalues --    0.37507   0.39590   0.40132   0.40767   0.42235
 Alpha virt. eigenvalues --    0.45932   0.47620   0.48196   0.48838   0.49673
 Alpha virt. eigenvalues --    0.50595   0.52083   0.52590   0.53940   0.54579
 Alpha virt. eigenvalues --    0.56900   0.59212   0.59669   0.60137   0.60595
 Alpha virt. eigenvalues --    0.62703   0.63673   0.64597   0.66714   0.67446
 Alpha virt. eigenvalues --    0.68737   0.69184   0.71462   0.71940   0.72563
 Alpha virt. eigenvalues --    0.73224   0.75504   0.76878   0.77931   0.78346
 Alpha virt. eigenvalues --    0.79034   0.80503   0.80928   0.81305   0.84091
 Alpha virt. eigenvalues --    0.90266   0.92340   0.93030   1.03017   1.05236
 Alpha virt. eigenvalues --    1.09500   1.13428   1.23216   1.25644   1.28604
 Alpha virt. eigenvalues --    1.30750   1.34432   1.35619   1.39282   1.40065
 Alpha virt. eigenvalues --    1.42753   1.46823   1.48980   1.53739   1.54342
 Alpha virt. eigenvalues --    1.60777   1.61181   1.63720   1.64629   1.66205
 Alpha virt. eigenvalues --    1.66431   1.68122   1.68744   1.73050   1.75349
 Alpha virt. eigenvalues --    1.78363   1.79268   1.80129   1.82392   1.83357
 Alpha virt. eigenvalues --    1.84181   1.86700   1.89396   1.89500   1.90036
 Alpha virt. eigenvalues --    1.91343   1.92540   1.97880   1.99322   2.00176
 Alpha virt. eigenvalues --    2.02359   2.02690   2.03128   2.03524   2.08115
 Alpha virt. eigenvalues --    2.10176   2.11471   2.16801   2.16962   2.18816
 Alpha virt. eigenvalues --    2.18962   2.21093   2.21907   2.25360   2.26416
 Alpha virt. eigenvalues --    2.28492   2.28959   2.29779   2.31048   2.32085
 Alpha virt. eigenvalues --    2.33810   2.34545   2.36028   2.37329   2.37949
 Alpha virt. eigenvalues --    2.42126   2.42578   2.45760   2.49437   2.50589
 Alpha virt. eigenvalues --    2.52740   2.53236   2.53954   2.58482   2.59976
 Alpha virt. eigenvalues --    2.62077   2.62836   2.65771   2.66236   2.69897
 Alpha virt. eigenvalues --    2.72046   2.73324   2.75104   2.75243   2.76317
 Alpha virt. eigenvalues --    2.78055   2.80810   2.82047   2.84170   2.84923
 Alpha virt. eigenvalues --    2.85233   2.96141   3.09236   3.13845   3.16168
 Alpha virt. eigenvalues --    3.17494   3.17971   3.20558   3.21824   3.26118
 Alpha virt. eigenvalues --    3.29907   3.30197   3.31383   3.33275   3.34794
 Alpha virt. eigenvalues --    3.37288   3.39467   3.97644   4.29783   4.33533
 Alpha virt. eigenvalues --    4.40285   4.42241   4.62225   4.64586   4.70055
 Alpha virt. eigenvalues --    4.78756   4.80761
          Condensed to atoms (all electrons):
               1          2          3          4          5          6
     1  C    4.932308  -0.044517  -0.044523  -0.042102  -0.041846   0.379399
     2  C   -0.044517   4.954713  -0.044612  -0.064355   0.003896   0.367373
     3  C   -0.044523  -0.044612   4.952946   0.003934  -0.064325  -0.016813
     4  C   -0.042102  -0.064355   0.003934   5.039733  -0.047266   0.351516
     5  C   -0.041846   0.003896  -0.064325  -0.047266   5.043140  -0.016212
     6  C    0.379399   0.367373  -0.016813   0.351516  -0.016212   4.935987
     7  C    0.379461  -0.016935   0.367371  -0.016292   0.351286  -0.030409
     8  C   -0.021839   0.374853   0.374192  -0.086778  -0.087407  -0.042517
     9  C   -0.020321  -0.078674  -0.077040   0.378516   0.377271  -0.047430
    10  N    0.000481   0.004338   0.003910  -0.051652  -0.049936   0.003808
    11  H    0.385761  -0.003138  -0.003156   0.004885   0.004851  -0.033804
    12  H    0.381456   0.004642   0.004632  -0.003137  -0.003186  -0.035712
    13  H    0.004537   0.378369   0.004616  -0.001698  -0.000294  -0.037399
    14  H   -0.003541   0.392894  -0.006648   0.005653   0.000081  -0.031036
    15  H   -0.003565  -0.006732   0.393224   0.000083   0.005670  -0.000882
    16  H    0.004535   0.004647   0.378175  -0.000302  -0.001645   0.000327
    17  H   -0.003413   0.005700  -0.000034   0.380675  -0.007184  -0.026142
    18  H    0.004277  -0.003495  -0.000113   0.372533   0.004488  -0.028029
    19  H    0.004287  -0.000115  -0.003349   0.004431   0.376156   0.000193
    20  H   -0.003358  -0.000026   0.005647  -0.007113   0.378030  -0.000689
    21  H   -0.030865  -0.033724  -0.000168  -0.034571  -0.000001   0.392646
    22  H   -0.031014  -0.000166  -0.033533  -0.000003  -0.034243   0.004023
    23  H    0.000300  -0.029814  -0.030563   0.003952   0.003870   0.004840
    24  H    0.000040  -0.000203  -0.000126   0.002577  -0.004843  -0.000138
    25  H    0.000002  -0.000222   0.000154   0.004365   0.002733  -0.000042
    26  H    0.000051   0.000043  -0.000198  -0.003905   0.004448   0.000021
               7          8          9         10         11         12
     1  C    0.379461  -0.021839  -0.020321   0.000481   0.385761   0.381456
     2  C   -0.016935   0.374853  -0.078674   0.004338  -0.003138   0.004642
     3  C    0.367371   0.374192  -0.077040   0.003910  -0.003156   0.004632
     4  C   -0.016292  -0.086778   0.378516  -0.051652   0.004885  -0.003137
     5  C    0.351286  -0.087407   0.377271  -0.049936   0.004851  -0.003186
     6  C   -0.030409  -0.042517  -0.047430   0.003808  -0.033804  -0.035712
     7  C    4.937862  -0.042617  -0.047729   0.004010  -0.033814  -0.035742
     8  C   -0.042617   5.094799   0.350148  -0.048399  -0.001995   0.000802
     9  C   -0.047729   0.350148   5.209410   0.105978   0.000965  -0.002852
    10  N    0.004010  -0.048399   0.105978   6.638798   0.000005  -0.000018
    11  H   -0.033814  -0.001995   0.000965   0.000005   0.573697  -0.027684
    12  H   -0.035742   0.000802  -0.002852  -0.000018  -0.027684   0.594405
    13  H    0.000324  -0.034547  -0.003047   0.000043  -0.000035  -0.000165
    14  H   -0.000893  -0.036082   0.006128  -0.000063   0.002889   0.000009
    15  H   -0.030981  -0.036140   0.006056  -0.000065   0.002884   0.000010
    16  H   -0.037365  -0.034298  -0.003189   0.000125  -0.000035  -0.000165
    17  H   -0.000726   0.005975  -0.037489   0.001163  -0.000006   0.003009
    18  H    0.000195  -0.003006  -0.037422  -0.009140  -0.000148  -0.000049
    19  H   -0.028122  -0.003079  -0.040132  -0.006964  -0.000150  -0.000051
    20  H   -0.026242   0.006032  -0.035179   0.000056  -0.000008   0.002979
    21  H    0.004023   0.005822   0.005550  -0.000139  -0.003115  -0.003287
    22  H    0.392435   0.005818   0.005455  -0.000130  -0.003068  -0.003285
    23  H    0.004930   0.380639  -0.049058  -0.005498  -0.000022   0.000019
    24  H   -0.000024   0.003885  -0.022068   0.323618  -0.000001   0.000000
    25  H    0.000062  -0.003005  -0.023454   0.322082  -0.000001   0.000002
    26  H   -0.000163   0.001832  -0.021273   0.320771  -0.000001  -0.000001
              13         14         15         16         17         18
     1  C    0.004537  -0.003541  -0.003565   0.004535  -0.003413   0.004277
     2  C    0.378369   0.392894  -0.006732   0.004647   0.005700  -0.003495
     3  C    0.004616  -0.006648   0.393224   0.378175  -0.000034  -0.000113
     4  C   -0.001698   0.005653   0.000083  -0.000302   0.380675   0.372533
     5  C   -0.000294   0.000081   0.005670  -0.001645  -0.007184   0.004488
     6  C   -0.037399  -0.031036  -0.000882   0.000327  -0.026142  -0.028029
     7  C    0.000324  -0.000893  -0.030981  -0.037365  -0.000726   0.000195
     8  C   -0.034547  -0.036082  -0.036140  -0.034298   0.005975  -0.003006
     9  C   -0.003047   0.006128   0.006056  -0.003189  -0.037489  -0.037422
    10  N    0.000043  -0.000063  -0.000065   0.000125   0.001163  -0.009140
    11  H   -0.000035   0.002889   0.002884  -0.000035  -0.000006  -0.000148
    12  H   -0.000165   0.000009   0.000010  -0.000165   0.003009  -0.000049
    13  H    0.615851  -0.029294   0.000274  -0.000216   0.000047   0.004078
    14  H   -0.029294   0.564339   0.003293   0.000271  -0.000191  -0.000003
    15  H    0.000274   0.003293   0.563880  -0.029434   0.000008   0.000002
    16  H   -0.000216   0.000271  -0.029434   0.616221   0.000001  -0.000002
    17  H    0.000047  -0.000191   0.000008   0.000001   0.573260  -0.032967
    18  H    0.004078  -0.000003   0.000002  -0.000002  -0.032967   0.611232
    19  H   -0.000001   0.000002  -0.000001   0.004095   0.000172  -0.000201
    20  H    0.000001   0.000008  -0.000193   0.000046   0.004490   0.000203
    21  H   -0.004188  -0.000782  -0.000065   0.000017  -0.000802  -0.004306
    22  H    0.000017  -0.000065  -0.000768  -0.004194  -0.000068   0.000016
    23  H   -0.006120   0.000344   0.000396  -0.006130  -0.000083  -0.000063
    24  H    0.000004   0.000003   0.000003  -0.000019   0.000143  -0.000053
    25  H   -0.000055  -0.000016  -0.000029  -0.000091  -0.000123   0.000112
    26  H    0.000011   0.000000   0.000002   0.000008   0.000229   0.010036
              19         20         21         22         23         24
     1  C    0.004287  -0.003358  -0.030865  -0.031014   0.000300   0.000040
     2  C   -0.000115  -0.000026  -0.033724  -0.000166  -0.029814  -0.000203
     3  C   -0.003349   0.005647  -0.000168  -0.033533  -0.030563  -0.000126
     4  C    0.004431  -0.007113  -0.034571  -0.000003   0.003952   0.002577
     5  C    0.376156   0.378030  -0.000001  -0.034243   0.003870  -0.004843
     6  C    0.000193  -0.000689   0.392646   0.004023   0.004840  -0.000138
     7  C   -0.028122  -0.026242   0.004023   0.392435   0.004930  -0.000024
     8  C   -0.003079   0.006032   0.005822   0.005818   0.380639   0.003885
     9  C   -0.040132  -0.035179   0.005550   0.005455  -0.049058  -0.022068
    10  N   -0.006964   0.000056  -0.000139  -0.000130  -0.005498   0.323618
    11  H   -0.000150  -0.000008  -0.003115  -0.003068  -0.000022  -0.000001
    12  H   -0.000051   0.002979  -0.003287  -0.003285   0.000019   0.000000
    13  H   -0.000001   0.000001  -0.004188   0.000017  -0.006120   0.000004
    14  H    0.000002   0.000008  -0.000782  -0.000065   0.000344   0.000003
    15  H   -0.000001  -0.000193  -0.000065  -0.000768   0.000396   0.000003
    16  H    0.004095   0.000046   0.000017  -0.004194  -0.006130  -0.000019
    17  H    0.000172   0.004490  -0.000802  -0.000068  -0.000083   0.000143
    18  H   -0.000201   0.000203  -0.004306   0.000016  -0.000063  -0.000053
    19  H    0.610307  -0.033398   0.000017  -0.004262  -0.000099   0.004818
    20  H   -0.033398   0.574032  -0.000069  -0.000731  -0.000085   0.002054
    21  H    0.000017  -0.000069   0.579710  -0.000086  -0.000171   0.000004
    22  H   -0.004262  -0.000731  -0.000086   0.579299  -0.000171  -0.000017
    23  H   -0.000099  -0.000085  -0.000171  -0.000171   0.617341   0.000080
    24  H    0.004818   0.002054   0.000004  -0.000017   0.000080   0.359003
    25  H    0.000796  -0.000148   0.000002  -0.000000   0.009686  -0.014702
    26  H   -0.000026  -0.000173  -0.000022   0.000004   0.000121  -0.015251
              25         26
     1  C    0.000002   0.000051
     2  C   -0.000222   0.000043
     3  C    0.000154  -0.000198
     4  C    0.004365  -0.003905
     5  C    0.002733   0.004448
     6  C   -0.000042   0.000021
     7  C    0.000062  -0.000163
     8  C   -0.003005   0.001832
     9  C   -0.023454  -0.021273
    10  N    0.322082   0.320771
    11  H   -0.000001  -0.000001
    12  H    0.000002  -0.000001
    13  H   -0.000055   0.000011
    14  H   -0.000016   0.000000
    15  H   -0.000029   0.000002
    16  H   -0.000091   0.000008
    17  H   -0.000123   0.000229
    18  H    0.000112   0.010036
    19  H    0.000796  -0.000026
    20  H   -0.000148  -0.000173
    21  H    0.000002  -0.000022
    22  H   -0.000000   0.000004
    23  H    0.009686   0.000121
    24  H   -0.014702  -0.015251
    25  H    0.357898  -0.014891
    26  H   -0.014891   0.360938
 Mulliken charges:
               1
     1  C   -0.185990
     2  C   -0.164741
     3  C   -0.163602
     4  C   -0.193682
     5  C   -0.197534
     6  C   -0.092878
     7  C   -0.093905
     8  C   -0.123089
     9  C    0.100878
    10  N   -0.557183
    11  H    0.134244
    12  H    0.123370
    13  H    0.108888
    14  H    0.132700
    15  H    0.133070
    16  H    0.108618
    17  H    0.134355
    18  H    0.111824
    19  H    0.114676
    20  H    0.133833
    21  H    0.128570
    22  H    0.128737
    23  H    0.101358
    24  H    0.361211
    25  H    0.358885
    26  H    0.357388
 Sum of Mulliken charges =   1.00000
 Mulliken charges with hydrogens summed into heavy atoms:
               1
     1  C    0.071624
     2  C    0.076847
     3  C    0.078086
     4  C    0.052498
     5  C    0.050974
     6  C    0.035691
     7  C    0.034831
     8  C   -0.021730
     9  C    0.100878
    10  N    0.520300
 Electronic spatial extent (au):  <R**2>=           1151.7369
 Charge=              1.0000 electrons
 Dipole moment (field-independent basis, Debye):
    X=              7.5319    Y=             -0.0150    Z=              0.1232  Tot=              7.5330
 Quadrupole moment (field-independent basis, Debye-Ang):
   XX=            -31.0118   YY=            -54.5008   ZZ=            -55.3829
   XY=             -0.0396   XZ=              0.7516   YZ=              0.0029
 Traceless Quadrupole moment (field-independent basis, Debye-Ang):
   XX=             15.9533   YY=             -7.5356   ZZ=             -8.4177
   XY=             -0.0396   XZ=              0.7516   YZ=              0.0029
 Octapole moment (field-independent basis, Debye-Ang**2):
  XXX=             78.1117  YYY=              0.7533  ZZZ=              0.1170  XYY=              7.2644
  XXY=             -0.1424  XXZ=              3.1900  XZZ=              7.3794  YZZ=             -0.8032
  YYZ=             -1.5208  XYZ=              0.1201
 Hexadecapole moment (field-independent basis, Debye-Ang**3):
 XXXX=           -398.1783 YYYY=           -467.6179 ZZZZ=           -366.1593 XXXY=             -0.4267
 XXXZ=              1.5853 YYYX=              2.1856 YYYZ=              0.0952 ZZZX=              4.9518
 ZZZY=             -0.2932 XXYY=           -162.6334 XXZZ=           -147.7208 YYZZ=           -142.5968
 XXYZ=              0.6326 YYXZ=              0.8629 ZZXY=             -2.2975
 N-N= 6.114879286899D+02 E-N=-2.152206600533D+03  KE= 4.034197014806D+02
 Calling FoFJK, ICntrl=      2127 FMM=F ISym2X=0 I1Cent= 0 IOpClX= 0 NMat=1 NMatS=1 NMatT=0.
 ***** Axes restored to original set *****
 -------------------------------------------------------------------
 Center     Atomic                   Forces (Hartrees/Bohr)
 Number     Number              X              Y              Z
 -------------------------------------------------------------------
      1        6           0.002095100    0.000601161    0.001114969
      2        6          -0.006693210    0.006479335   -0.001608365
      3        6          -0.002749393   -0.008888848    0.001523356
      4        6           0.009524081    0.005217931   -0.004177398
      5        6           0.009745730   -0.003659563   -0.001920245
      6        6          -0.003233724   -0.001460712   -0.002585011
      7        6          -0.003123779   -0.000976301   -0.002681363
      8        6          -0.012349161   -0.004795020   -0.012941379
      9        6           0.005755601   -0.002706078   -0.023468258
     10        7           0.000862295    0.008126152    0.042817584
     11        1           0.001386418    0.000479500    0.000590579
     12        1          -0.000532309   -0.000445934   -0.001557331
     13        1          -0.000110529    0.001058977   -0.003155033
     14        1          -0.000936175   -0.000635179    0.003473064
     15        1          -0.001463834    0.001462200    0.003088230
     16        1           0.000695255   -0.002126094   -0.002507730
     17        1           0.000212439   -0.000534238    0.003475497
     18        1          -0.001699447    0.000899870   -0.000663964
     19        1          -0.001002077   -0.001550632   -0.000451723
     20        1          -0.000303456    0.002428553    0.003086302
     21        1           0.002064785   -0.001048267   -0.000561625
     22        1           0.001414884    0.001521393   -0.001043435
     23        1           0.000498556    0.001171665    0.004352236
     24        1          -0.003625636    0.003140113   -0.001948398
     25        1           0.004779005    0.001128132   -0.001842948
     26        1          -0.001211419   -0.004888114   -0.000407612
 -------------------------------------------------------------------
 Cartesian Forces:  Max     0.042817584 RMS     0.006703697

 GradGradGradGradGradGradGradGradGradGradGradGradGradGradGradGradGradGrad
 Berny optimization.
 FormGI is forming the generalized inverse of G from B-inverse, IUseBI=4.
 Internal  Forces:  Max     0.039343461 RMS     0.003423684
 Search for a local minimum.
 Step number   1 out of a maximum of  156
 All quantities printed in internal units (Hartrees-Bohrs-Radians)
 Mixed Optimization -- RFO/linear search
 Second derivative matrix not updated -- first step.
 ITU=  0
     Eigenvalues ---    0.16000   0.16000   0.16000   0.28008   0.28427
     Eigenvalues ---    0.33987   0.33991   0.34040   0.34042   0.34068
     Eigenvalues ---    0.34082   0.34232   0.34234   0.34266   0.34269
     Eigenvalues ---    0.34458   0.34461   0.34467   0.36736   0.42219
     Eigenvalues ---    0.42227   0.422431000.000001000.000001000.00000
     Eigenvalues --- 1000.000001000.000001000.000001000.000001000.00000
     Eigenvalues --- 1000.000001000.000001000.000001000.000001000.00000
     Eigenvalues --- 1000.000001000.000001000.000001000.000001000.00000
     Eigenvalues --- 1000.000001000.000001000.000001000.000001000.00000
     Eigenvalues --- 1000.000001000.000001000.000001000.000001000.00000
     Eigenvalues --- 1000.000001000.000001000.000001000.000001000.00000
     Eigenvalues --- 1000.000001000.000001000.000001000.000001000.00000
     Eigenvalues --- 1000.000001000.000001000.000001000.000001000.00000
     Eigenvalues --- 1000.000001000.000001000.000001000.000001000.00000
     Eigenvalues --- 1000.000001000.000001000.000001000.000001000.00000
     Eigenvalues --- 1000.000001000.000001000.000001000.000001000.00000
     Eigenvalues --- 1000.000001000.000001000.000001000.000001000.00000
     Eigenvalues --- 1000.000001000.000001000.000001000.000001000.00000
     Eigenvalues --- 1000.000001000.000001000.000001000.000001000.00000
     Eigenvalues --- 1000.000001000.000001000.000001000.000001000.00000
     Eigenvalues --- 1000.000001000.000001000.000001000.000001000.00000
     Eigenvalues --- 1000.000001000.000001000.000001000.000001000.00000
     Eigenvalues --- 1000.000001000.000001000.000001000.000001000.00000
     Eigenvalues --- 1000.000001000.000001000.000001000.000001000.00000
     Eigenvalues --- 1000.000001000.000001000.000001000.000001000.00000
     Eigenvalues --- 1000.000001000.000001000.000001000.000001000.00000
     Eigenvalues --- 1000.000001000.000001000.000001000.000001000.00000
     Eigenvalues --- 1000.000001000.000001000.000001000.000001000.00000
     Eigenvalues --- 1000.000001000.000001000.000001000.000001000.00000
     Eigenvalues --- 1000.000001000.000001000.000001000.000001000.00000
     Eigenvalues --- 1000.000001000.000001000.000001000.000001000.00000
     Eigenvalues --- 1000.000001000.000001000.000001000.000001000.00000
     Eigenvalues --- 1000.000001000.000001000.000001000.000001000.00000
     Eigenvalues --- 1000.000001000.000001000.000001000.000001000.00000
     Eigenvalues --- 1000.000001000.000001000.000001000.000001000.00000
     Eigenvalues --- 1000.000001000.000001000.000001000.000001000.00000
     Eigenvalues --- 1000.000001000.000001000.000001000.000001000.00000
     Eigenvalues --- 1000.000001000.000001000.000001000.000001000.00000
     Eigenvalues --- 1000.000001000.000001000.000001000.000001000.00000
     Eigenvalues --- 1000.00000
 RFO step:  Lambda=-5.70639632D-03 EMin= 1.60000000D-01
 Linear search not attempted -- first point.
 Iteration  1 RMS(Cart)=  0.01762723 RMS(Int)=  0.00000422
 Iteration  2 RMS(Cart)=  0.00000510 RMS(Int)=  0.00000065
 Iteration  3 RMS(Cart)=  0.00000000 RMS(Int)=  0.00000065
 Iteration  1 RMS(Cart)=  0.00000008 RMS(Int)=  0.00000006
 Variable       Old X    -DE/DX   Delta X   Delta X   Delta X     New X
                                 (Linear)    (Quad)   (Total)
    R1        2.94476  -0.00002   0.00000   0.01249   0.01249   2.95724
    R2        2.94485  -0.00010   0.00000   0.01270   0.01270   2.95755
    R3        2.07216  -0.00129   0.00000  -0.00374  -0.00374   2.06842
    R4        2.07191  -0.00020   0.00000  -0.00056  -0.00056   2.07135
    R5        2.89645   0.00678   0.00000   0.02590   0.02590   2.92235
    R6        2.90703   0.00561   0.00000   0.01192   0.01192   2.91894
    R7        2.07263  -0.00020   0.00000  -0.00058  -0.00058   2.07205
    R8        2.06878  -0.00169   0.00000  -0.00484  -0.00484   2.06394
    R9        2.89617   0.00667   0.00000   0.02585   0.02585   2.92201
   R10        2.90714   0.00586   0.00000   0.01176   0.01176   2.91890
   R11        2.06884  -0.00169   0.00000  -0.00486  -0.00486   2.06398
   R12        2.07259  -0.00017   0.00000  -0.00050  -0.00050   2.07209
   R13        2.89519   0.00647   0.00000   0.02521   0.02521   2.92040
   R14        2.89577   0.00552   0.00000   0.01200   0.01200   2.90776
   R15        2.06941  -0.00015   0.00000  -0.00042  -0.00042   2.06899
   R16        2.07352   0.00119   0.00000   0.00343   0.00343   2.07695
   R17        2.89532   0.00637   0.00000   0.02515   0.02515   2.92048
   R18        2.89570   0.00535   0.00000   0.01183   0.01183   2.90753
   R19        2.07345   0.00084   0.00000   0.00244   0.00244   2.07589
   R20        2.06937   0.00006   0.00000   0.00016   0.00016   2.06953
   R21        2.06563  -0.00033   0.00000  -0.00095  -0.00095   2.06468
   R22        2.06559  -0.00035   0.00000  -0.00099  -0.00099   2.06460
   R23        2.95797   0.01176   0.00000   0.03294   0.03294   2.99091
   R24        2.06550   0.00253   0.00000   0.00722   0.00722   2.07272
   R25        2.76245   0.03934   0.00000   0.10546   0.10546   2.86791
   R26        1.95314  -0.00505   0.00000  -0.01181  -0.01181   1.94134
   R27        1.95345  -0.00516   0.00000  -0.01206  -0.01206   1.94140
   R28        1.95335  -0.00494   0.00000  -0.01154  -0.01154   1.94181
    A1        1.94815   0.00224   0.00000   0.00000  -0.00000   1.94815
    A2        1.90865  -0.00066   0.00000   0.00000   0.00000   1.90865
    A3        1.90964  -0.00034   0.00000  -0.00000  -0.00000   1.90964
    A4        1.90854  -0.00065   0.00000  -0.00000   0.00000   1.90854
    A5        1.90958  -0.00033   0.00000   0.00000   0.00000   1.90958
    A6        1.87793  -0.00036   0.00000  -0.00000  -0.00000   1.87793
    A7        1.76392  -0.00166   0.00000   0.00000   0.00000   1.76392
    A8        1.93569  -0.00067   0.00000  -0.00000  -0.00000   1.93569
    A9        1.96902   0.00236   0.00000   0.00000   0.00000   1.96902
   A10        1.92935   0.00323   0.00000   0.00000   0.00000   1.92935
   A11        1.98018  -0.00212   0.00000   0.00000  -0.00000   1.98018
   A12        1.88476  -0.00104   0.00000   0.00000  -0.00000   1.88476
   A13        1.76395  -0.00157   0.00000  -0.00000  -0.00000   1.76395
   A14        1.96916   0.00238   0.00000  -0.00000  -0.00000   1.96916
   A15        1.93585  -0.00075   0.00000   0.00000   0.00000   1.93585
   A16        1.98016  -0.00222   0.00000   0.00000   0.00000   1.98016
   A17        1.92948   0.00327   0.00000   0.00000   0.00000   1.92948
   A18        1.88437  -0.00101   0.00000  -0.00000  -0.00000   1.88437
   A19        1.74412  -0.00081   0.00000  -0.00000   0.00000   1.74412
   A20        1.96384   0.00276   0.00000  -0.00000  -0.00000   1.96384
   A21        1.93615  -0.00122   0.00000   0.00000   0.00000   1.93615
   A22        1.98054  -0.00186   0.00000   0.00000  -0.00000   1.98054
   A23        1.95421   0.00112   0.00000   0.00000   0.00000   1.95421
   A24        1.88396   0.00000   0.00000   0.00000   0.00000   1.88396
   A25        1.74409  -0.00078   0.00000   0.00000   0.00000   1.74409
   A26        1.93596  -0.00125   0.00000  -0.00000   0.00000   1.93596
   A27        1.96374   0.00291   0.00000   0.00000  -0.00000   1.96374
   A28        1.95399   0.00127   0.00000   0.00000  -0.00000   1.95399
   A29        1.98036  -0.00224   0.00000  -0.00000  -0.00000   1.98036
   A30        1.88459   0.00009   0.00000   0.00000   0.00000   1.88459
   A31        1.91266   0.00053   0.00000  -0.00000   0.00000   1.91266
   A32        1.91571  -0.00087   0.00000   0.00000   0.00000   1.91571
   A33        1.95276  -0.00070   0.00000  -0.00000  -0.00000   1.95276
   A34        1.73110   0.00196   0.00000  -0.00000  -0.00000   1.73110
   A35        1.96912  -0.00022   0.00000   0.00000   0.00000   1.96912
   A36        1.97051  -0.00042   0.00000  -0.00000  -0.00000   1.97051
   A37        1.91277   0.00044   0.00000  -0.00000   0.00000   1.91277
   A38        1.91563  -0.00070   0.00000  -0.00000  -0.00000   1.91563
   A39        1.95273  -0.00073   0.00000  -0.00000  -0.00000   1.95273
   A40        1.73109   0.00185   0.00000   0.00000   0.00000   1.73109
   A41        1.96917  -0.00013   0.00000  -0.00000  -0.00000   1.96917
   A42        1.97048  -0.00045   0.00000   0.00000   0.00000   1.97048
   A43        1.86267   0.00125   0.00000  -0.00000   0.00000   1.86267
   A44        1.81049   0.00013   0.00000   0.00000  -0.00000   1.81049
   A45        1.96841   0.00040   0.00000  -0.00000  -0.00000   1.96841
   A46        1.81040  -0.00012   0.00000   0.00000   0.00000   1.81040
   A47        1.96846   0.00054   0.00000   0.00000   0.00000   1.96846
   A48        2.02639  -0.00204   0.00000  -0.00000  -0.00000   2.02639
   A49        1.89274  -0.00109   0.00000   0.00000  -0.00000   1.89274
   A50        1.83678  -0.00038   0.00000   0.00000  -0.00000   1.83678
   A51        1.95575   0.00094   0.00000  -0.00000   0.00000   1.95575
   A52        1.83683  -0.00027   0.00000  -0.00000  -0.00000   1.83683
   A53        1.95584   0.00052   0.00000   0.00000  -0.00000   1.95584
   A54        1.97762   0.00011   0.00000  -0.00000   0.00000   1.97762
   A55        1.95628   0.00069   0.00000   0.00398   0.00398   1.96026
   A56        1.95560   0.00028   0.00000   0.00182   0.00182   1.95742
   A57        1.95626   0.00043   0.00000   0.00266   0.00266   1.95892
   A58        1.86298  -0.00050   0.00000  -0.00316  -0.00317   1.85981
   A59        1.86318  -0.00057   0.00000  -0.00363  -0.00363   1.85955
   A60        1.86318  -0.00046   0.00000  -0.00244  -0.00245   1.86073
    D1       -0.93826  -0.00063   0.00000   0.00000   0.00000  -0.93826
    D2        0.94548   0.00149   0.00000   0.00000  -0.00000   0.94548
    D3       -3.13592  -0.00024   0.00000   0.00000  -0.00000  -3.13592
    D4        1.17593  -0.00044   0.00000   0.00000   0.00000   1.17593
    D5        3.05968   0.00169   0.00000   0.00000   0.00000   3.05968
    D6       -1.02172  -0.00004   0.00000   0.00000   0.00000  -1.02172
    D7       -3.05442  -0.00146   0.00000   0.00000   0.00000  -3.05442
    D8       -1.17068   0.00067   0.00000   0.00000  -0.00000  -1.17068
    D9        1.03111  -0.00106   0.00000   0.00000  -0.00000   1.03111
   D10        0.93825   0.00062   0.00000   0.00000   0.00000   0.93825
   D11       -0.94550  -0.00142   0.00000   0.00000   0.00000  -0.94550
   D12        3.13604   0.00024   0.00000   0.00000   0.00000   3.13604
   D13       -1.17600   0.00043   0.00000   0.00000  -0.00000  -1.17600
   D14       -3.05975  -0.00160   0.00000   0.00000  -0.00000  -3.05975
   D15        1.02178   0.00006   0.00000   0.00000  -0.00000   1.02178
   D16        3.05445   0.00143   0.00000   0.00000   0.00000   3.05445
   D17        1.17070  -0.00060   0.00000   0.00000  -0.00000   1.17070
   D18       -1.03095   0.00105   0.00000   0.00000  -0.00000  -1.03095
   D19        1.09541  -0.00135   0.00000   0.00000  -0.00000   1.09541
   D20       -0.91002  -0.00147   0.00000   0.00000  -0.00000  -0.91002
   D21       -2.99949  -0.00202   0.00000   0.00000  -0.00000  -2.99949
   D22        3.14136   0.00121   0.00000   0.00000   0.00000   3.14136
   D23        1.13593   0.00109   0.00000   0.00000   0.00000   1.13593
   D24       -0.95355   0.00054   0.00000   0.00000   0.00000  -0.95355
   D25       -1.02491   0.00104   0.00000   0.00000   0.00000  -1.02491
   D26       -3.03034   0.00092   0.00000   0.00000   0.00000  -3.03034
   D27        1.16337   0.00037   0.00000   0.00000   0.00000   1.16337
   D28       -1.36729   0.00055   0.00000   0.00000  -0.00000  -1.36729
   D29        0.53824   0.00092   0.00000   0.00000   0.00000   0.53824
   D30        2.74495  -0.00128   0.00000   0.00000  -0.00000   2.74495
   D31        2.86532   0.00085   0.00000   0.00000   0.00000   2.86532
   D32       -1.51234   0.00122   0.00000   0.00000   0.00000  -1.51234
   D33        0.69437  -0.00098   0.00000   0.00000  -0.00000   0.69437
   D34        0.74519   0.00130   0.00000   0.00000   0.00000   0.74519
   D35        2.65071   0.00167   0.00000   0.00000   0.00000   2.65071
   D36       -1.42576  -0.00053   0.00000   0.00000  -0.00000  -1.42576
   D37       -1.09527   0.00135   0.00000   0.00000  -0.00000  -1.09527
   D38        0.91010   0.00158   0.00000   0.00000  -0.00000   0.91010
   D39        2.99955   0.00206   0.00000   0.00000  -0.00000   2.99955
   D40        1.02511  -0.00110   0.00000   0.00000  -0.00000   1.02511
   D41        3.03048  -0.00086   0.00000   0.00000  -0.00000   3.03048
   D42       -1.16325  -0.00038   0.00000   0.00000  -0.00000  -1.16325
   D43       -3.14145  -0.00127   0.00000   0.00000   0.00000  -3.14145
   D44       -1.13608  -0.00103   0.00000   0.00000  -0.00000  -1.13608
   D45        0.95337  -0.00055   0.00000   0.00000  -0.00000   0.95337
   D46        1.36723  -0.00045   0.00000   0.00000   0.00000   1.36723
   D47       -0.53837  -0.00100   0.00000   0.00000   0.00000  -0.53837
   D48       -2.74504   0.00130   0.00000   0.00000  -0.00000  -2.74504
   D49       -0.74542  -0.00123   0.00000   0.00000   0.00000  -0.74542
   D50       -2.65102  -0.00178   0.00000   0.00000   0.00000  -2.65102
   D51        1.42550   0.00051   0.00000   0.00000  -0.00000   1.42550
   D52       -2.86512  -0.00077   0.00000   0.00000   0.00000  -2.86512
   D53        1.51247  -0.00132   0.00000   0.00000   0.00000   1.51247
   D54       -0.69420   0.00098   0.00000   0.00000  -0.00000  -0.69420
   D55       -1.08478  -0.00032   0.00000   0.00000   0.00000  -1.08478
   D56        0.91829   0.00089   0.00000   0.00000   0.00000   0.91829
   D57        3.00674   0.00159   0.00000   0.00000   0.00000   3.00674
   D58        1.02167  -0.00174   0.00000   0.00000  -0.00000   1.02167
   D59        3.02474  -0.00053   0.00000   0.00000  -0.00000   3.02474
   D60       -1.17000   0.00017   0.00000   0.00000  -0.00000  -1.17000
   D61        3.13425  -0.00068   0.00000   0.00000  -0.00000   3.13425
   D62       -1.14586   0.00053   0.00000   0.00000  -0.00000  -1.14586
   D63        0.94258   0.00123   0.00000   0.00000  -0.00000   0.94258
   D64        1.37859   0.00033   0.00000   0.00000  -0.00000   1.37859
   D65       -0.57996   0.00129   0.00000   0.00000   0.00000  -0.57996
   D66       -2.73658   0.00086   0.00000   0.00000  -0.00000  -2.73658
   D67       -0.71575  -0.00160   0.00000   0.00000   0.00000  -0.71575
   D68       -2.67431  -0.00064   0.00000   0.00000   0.00000  -2.67431
   D69        1.45227  -0.00107   0.00000   0.00000  -0.00000   1.45227
   D70       -2.85385  -0.00106   0.00000   0.00000  -0.00000  -2.85385
   D71        1.47078  -0.00010   0.00000   0.00000   0.00000   1.47078
   D72       -0.68584  -0.00054   0.00000   0.00000  -0.00000  -0.68584
   D73        1.08485   0.00015   0.00000   0.00000   0.00000   1.08485
   D74       -0.91831  -0.00097   0.00000   0.00000  -0.00000  -0.91831
   D75       -3.00680  -0.00169   0.00000   0.00000  -0.00000  -3.00680
   D76       -3.13452   0.00068   0.00000   0.00000   0.00000  -3.13452
   D77        1.14550  -0.00044   0.00000   0.00000  -0.00000   1.14550
   D78       -0.94299  -0.00116   0.00000   0.00000  -0.00000  -0.94299
   D79       -1.02133   0.00192   0.00000   0.00000   0.00000  -1.02133
   D80       -3.02450   0.00080   0.00000   0.00000  -0.00000  -3.02450
   D81        1.17020   0.00008   0.00000   0.00000  -0.00000   1.17020
   D82       -1.37863  -0.00017   0.00000   0.00000   0.00000  -1.37863
   D83        0.57989  -0.00121   0.00000   0.00000  -0.00000   0.57989
   D84        2.73659  -0.00095   0.00000   0.00000  -0.00000   2.73659
   D85        2.85413   0.00118   0.00000   0.00000  -0.00000   2.85413
   D86       -1.47053   0.00014   0.00000   0.00000  -0.00000  -1.47053
   D87        0.68617   0.00041   0.00000   0.00000  -0.00000   0.68617
   D88        0.71550   0.00177   0.00000   0.00000   0.00000   0.71550
   D89        2.67402   0.00074   0.00000   0.00000  -0.00000   2.67402
   D90       -1.45247   0.00100   0.00000   0.00000  -0.00000  -1.45247
   D91        0.02691  -0.00144   0.00000   0.00000  -0.00000   0.02691
   D92       -1.97088   0.00006   0.00000   0.00000  -0.00000  -1.97088
   D93        2.16954  -0.00047   0.00000   0.00000   0.00000   2.16954
   D94        1.97094  -0.00007   0.00000   0.00000  -0.00000   1.97094
   D95       -0.02685   0.00143   0.00000   0.00000   0.00000  -0.02685
   D96       -2.16962   0.00090   0.00000   0.00000   0.00000  -2.16962
   D97       -2.14268  -0.00076   0.00000   0.00000   0.00000  -2.14268
   D98        2.14272   0.00074   0.00000   0.00000   0.00000   2.14272
   D99       -0.00005   0.00021   0.00000   0.00000   0.00000  -0.00005
   D100      -1.87489   0.00073   0.00000   0.00000  -0.00000  -1.87489
   D101       2.31422   0.00069   0.00000   0.00000  -0.00000   2.31422
   D102       0.21991   0.00079   0.00000   0.00000   0.00000   0.21991
   D103       0.25754   0.00038   0.00000   0.00000  -0.00000   0.25754
   D104      -1.83653   0.00034   0.00000   0.00000  -0.00000  -1.83653
   D105       2.35234   0.00044   0.00000   0.00000   0.00000   2.35234
   D106       2.33298   0.00048   0.00000   0.00000  -0.00000   2.33298
   D107       0.23891   0.00044   0.00000   0.00000  -0.00000   0.23891
   D108      -1.85540   0.00054   0.00000   0.00000   0.00000  -1.85540
         Item               Value     Threshold  Converged?
 Maximum Force            0.039343     0.000450     NO 
 RMS     Force            0.004797     0.000300     NO 
 Maximum Displacement     0.103481     0.001800     NO 
 RMS     Displacement     0.017624     0.001200     NO 
 Predicted change in Energy=-2.899711D-03
 GradGradGradGradGradGradGradGradGradGradGradGradGradGradGradGradGradGrad

                          Input orientation:                          
 ---------------------------------------------------------------------
 Center     Atomic      Atomic             Coordinates (Angstroms)
 Number     Number       Type             X           Y           Z
 ---------------------------------------------------------------------
      1          6           0        9.793235   37.860828   28.889403
      2          6           0        7.718096   38.883075   29.943835
      3          6           0        8.277938   36.516879   30.426007
      4          6           0        9.811022   39.558708   30.784000
      5          6           0       10.374766   37.175530   31.269590
      6          6           0        9.150338   39.177020   29.440088
      7          6           0        9.734872   36.705585   29.943656
      8          6           0        8.005073   37.885613   31.087784
      9          6           0        9.424487   38.331376   31.627748
     10          7           0        9.432783   38.636308   33.114409
     11          1           0        9.264964   37.550996   27.982212
     12          1           0       10.837323   38.052032   28.615942
     13          1           0        7.246711   39.792344   30.335370
     14          1           0        7.070202   38.476044   29.164451
     15          1           0        7.588949   36.282744   29.611515
     16          1           0        8.212116   35.711188   31.166849
     17          1           0       10.892596   39.702738   30.693581
     18          1           0        9.378292   40.486065   31.184902
     19          1           0       10.350402   36.375604   32.022089
     20          1           0       11.416243   37.490111   31.144245
     21          1           0        9.183661   39.984933   28.705311
     22          1           0       10.177677   35.782805   29.561499
     23          1           0        7.197550   37.845613   31.828969
     24          1           0       10.229405   38.202922   33.597044
     25          1           0        8.585134   38.295724   33.584437
     26          1           0        9.488965   39.644614   33.304260
 ---------------------------------------------------------------------
                    Distance matrix (angstroms):
                    1          2          3          4          5
     1  C    0.000000
     2  C    2.542247   0.000000
     3  C    2.542337   2.478870   0.000000
     4  C    2.544133   2.354294   3.425089   0.000000
     5  C    2.544229   3.425088   2.354176   2.496626   0.000000
     6  C    1.564906   1.546442   2.968075   1.545409   2.975275
     7  C    1.565069   2.967970   1.546264   2.975280   1.545449
     8  C    2.833905   1.544638   1.544615   2.480522   2.480467
     9  C    2.802843   2.460021   2.459910   1.538722   1.538599
    10  N    4.310681   3.612974   3.612914   2.534698   2.534672
    11  H    1.094559   2.831113   2.831210   3.489857   3.489912
    12  H    1.096111   3.490489   3.490485   2.832639   2.832677
    13  H    3.508042   1.096482   3.435158   2.613722   4.183922
    14  H    2.805183   1.092191   2.624591   3.362618   4.128328
    15  H    2.805472   2.624660   1.092210   4.128472   3.362597
    16  H    3.508226   3.435213   1.096502   4.184076   2.613792
    17  H    2.802906   3.363244   4.130100   1.094861   2.643239
    18  H    3.511889   2.620319   4.188214   1.099076   3.458290
    19  H    3.511417   4.187551   2.619646   3.457737   1.098513
    20  H    2.802838   4.130088   3.363333   2.643029   1.095147
    21  H    2.217497   2.212672   3.975995   2.212736   3.985850
    22  H    2.217586   3.975851   2.212521   3.985773   2.212713
    23  H    3.921589   2.213826   2.213837   3.294980   3.294938
    24  H    4.740165   4.484999   4.087351   3.150622   2.548275
    25  H    4.867442   3.788235   3.637904   3.307625   3.133071
    26  H    4.771314   3.874064   4.419689   2.542206   3.319774
                    6          7          8          9         10
     6  C    0.000000
     7  C    2.589063   0.000000
     8  C    2.386266   2.386147   0.000000
     9  C    2.361383   2.361292   1.582720   0.000000
    10  N    3.724618   3.724597   2.590194   1.517634   0.000000
    11  H    2.186891   2.186960   3.368066   3.731537   5.248381
    12  H    2.188774   2.188868   3.762890   3.338430   4.748717
    13  H    2.191791   3.984026   2.185603   2.923589   3.719997
    14  H    2.212309   3.292742   2.218513   3.410487   4.605392
    15  H    3.293047   2.212262   2.218495   3.410468   4.605350
    16  H    3.984213   2.191760   2.185690   2.923638   3.720127
    17  H    2.209770   3.299338   3.434403   2.215546   3.021380
    18  H    2.193157   3.994980   2.942365   2.200212   2.673494
    19  H    3.994348   2.192635   2.941704   2.199515   2.673195
    20  H    3.299111   2.209955   3.434486   2.215535   3.021494
    21  H    1.092581   3.548445   3.387093   3.366436   4.617467
    22  H    3.548360   1.092540   3.386968   3.366288   4.617414
    23  H    3.360473   3.360368   1.096836   2.288166   2.697002
    24  H    4.403809   3.979174   3.368193   2.131319   1.027310
    25  H    4.274549   4.135907   2.595754   2.129417   1.027342
    26  H    3.907063   4.471243   3.195119   2.130597   1.027561
                   11         12         13         14         15
    11  H    0.000000
    12  H    1.767757   0.000000
    13  H    3.825485   4.344837   0.000000
    14  H    2.659019   3.830385   1.770552   0.000000
    15  H    2.659345   3.830598   3.599776   2.297723   0.000000
    16  H    3.825610   4.344927   4.275418   3.599721   1.770332
    17  H    3.825009   2.654141   3.664535   4.295778   4.876608
    18  H    4.345652   3.827903   2.397204   3.667381   4.831688
    19  H    4.345149   3.827445   4.914471   4.830906   3.666758
    20  H    3.824939   2.653906   4.831102   4.876445   4.295949
    21  H    2.540381   2.545328   2.538889   2.637094   4.131649
    22  H    2.540411   2.545309   5.026513   4.131293   2.637036
    23  H    4.377047   4.859434   2.454183   2.741043   2.740959
    24  H    5.734238   5.020330   4.696939   5.450050   5.152042
    25  H    5.692250   5.460557   3.819382   4.675876   4.563835
    26  H    5.723426   5.131735   3.723417   4.934976   5.343089
                   16         17         18         19         20
    16  H    0.000000
    17  H    4.831296   0.000000
    18  H    4.915256   1.774292   0.000000
    19  H    2.396904   3.623359   4.306016   0.000000
    20  H    3.664903   2.317977   3.623622   1.774474   0.000000
    21  H    5.026726   2.636913   2.537200   5.038806   4.142096
    22  H    2.538840   4.142292   5.039355   2.536877   2.637048
    23  H    2.454286   4.288517   3.484601   3.484063   4.288659
    24  H    4.022940   3.334572   3.428639   2.415412   2.816542
    25  H    3.558610   3.957413   3.344318   3.040389   3.823445
    26  H    4.655181   2.964659   2.282974   3.615586   3.608593
                   21         22         23         24         25
    21  H    0.000000
    22  H    4.402159   0.000000
    23  H    4.275344   4.275249   0.000000
    24  H    5.310198   4.705875   3.527875   0.000000
    25  H    5.197840   5.003497   2.282468   1.646935   0.000000
    26  H    4.621619   5.421821   3.265497   1.646951   1.647700
                   26
    26  H    0.000000
 Stoichiometry    C9H16N(1+)
 Framework group  C1[X(C9H16N)]
 Deg. of freedom    72
 Full point group                 C1      NOp   1
 Largest Abelian subgroup         C1      NOp   1
 Largest concise Abelian subgroup C1      NOp   1
                         Standard orientation:                         
[...]
     12          1           0       -1.817163    0.000448   -1.959363
     13          1           0       -0.228865    2.134969    1.473083
     14          1           0       -1.680602    1.146285    1.691894
     15          1           0       -1.680345   -1.147437    1.691480
     16          1           0       -0.228760   -2.135833    1.472097
     17          1           0        0.569553    1.157662   -1.967275
     18          1           0        1.025167    2.150844   -0.570624
     19          1           0        1.025024   -2.150049   -0.571406
     20          1           0        0.569515   -1.156359   -1.968029
     21          1           0       -1.506945    2.198869   -0.719798
     22          1           0       -1.506782   -2.198543   -0.720793
     23          1           0        0.762228   -0.000524    2.156177
     24          1           0        2.955093   -0.690364   -0.533349
     25          1           0        2.749916   -0.226281    1.041212
     26          1           0        2.904232    0.916875   -0.145318
 ---------------------------------------------------------------------
 Rotational constants (GHZ):           1.9477712           1.4972822           1.3431006

 **********************************************************************

            Population analysis using the SCF density.

 **********************************************************************

 Orbital symmetries:
       Occupied  (A) (A) (A) (A) (A) (A) (A) (A) (A) (A) (A) (A)
                 (A) (A) (A) (A) (A) (A) (A) (A) (A) (A) (A) (A)
                 (A) (A) (A) (A) (A) (A) (A) (A) (A) (A) (A) (A)
                 (A) (A)
       Virtual   (A) (A) (A) (A) (A) (A) (A) (A) (A) (A) (A) (A)
                 (A) (A) (A) (A) (A) (A) (A) (A) (A) (A) (A) (A)
                 (A) (A) (A) (A) (A) (A) (A) (A) (A) (A) (A) (A)
                 (A) (A) (A) (A) (A) (A) (A) (A) (A) (A) (A) (A)
                 (A) (A) (A) (A) (A) (A) (A) (A) (A) (A) (A) (A)
                 (A) (A) (A) (A) (A) (A) (A) (A) (A) (A) (A) (A)
                 (A) (A) (A) (A) (A) (A) (A) (A) (A) (A) (A) (A)
                 (A) (A) (A) (A) (A) (A) (A) (A) (A) (A) (A) (A)
                 (A) (A) (A) (A) (A) (A) (A) (A) (A) (A) (A) (A)
                 (A) (A) (A) (A) (A) (A) (A) (A) (A) (A) (A) (A)
                 (A) (A) (A) (A) (A) (A) (A) (A) (A) (A) (A) (A)
                 (A) (A) (A) (A) (A) (A) (A) (A) (A) (A) (A) (A)
                 (A) (A) (A) (A) (A) (A) (A) (A) (A) (A) (A) (A)
                 (A) (A) (A) (A) (A) (A) (A) (A) (A) (A) (A) (A)
                 (A) (A) (A) (A) (A) (A) (A) (A) (A) (A) (A) (A)
                 (A) (A) (A) (A) (A) (A) (A) (A) (A) (A) (A) (A)
 The electronic state is 1-A.
 Alpha  occ. eigenvalues --  -14.64241 -10.41746 -10.34578 -10.34154 -10.34136
 Alpha  occ. eigenvalues --  -10.32908 -10.32907 -10.31468 -10.31452 -10.31277
 Alpha  occ. eigenvalues --   -1.18287  -1.03448  -0.92615  -0.89992  -0.88735
 Alpha  occ. eigenvalues --   -0.80933  -0.78714  -0.76175  -0.76034  -0.71856
 Alpha  occ. eigenvalues --   -0.71664  -0.68872  -0.66390  -0.60322  -0.60285
 Alpha  occ. eigenvalues --   -0.58993  -0.55497  -0.55141  -0.53436  -0.52478
 Alpha  occ. eigenvalues --   -0.50948  -0.50246  -0.48230  -0.47360  -0.45778
 Alpha  occ. eigenvalues --   -0.45482  -0.43591  -0.43375
 Alpha virt. eigenvalues --   -0.14627  -0.09403  -0.09149  -0.08108  -0.03638
 Alpha virt. eigenvalues --   -0.02049  -0.01432  -0.00765   0.00937   0.01127
 Alpha virt. eigenvalues --    0.02686   0.03274   0.04089   0.04207   0.04874
 Alpha virt. eigenvalues --    0.05311   0.06766   0.07505   0.07718   0.08946
 Alpha virt. eigenvalues --    0.09641   0.10281   0.10836   0.11867   0.14072
 Alpha virt. eigenvalues --    0.16426   0.17439   0.17810   0.34060   0.34966
 Alpha virt. eigenvalues --    0.37379   0.39833   0.40431   0.40777   0.41765
 Alpha virt. eigenvalues --    0.45513   0.47186   0.47784   0.48683   0.49406
 Alpha virt. eigenvalues --    0.50401   0.51688   0.52164   0.53593   0.54254
 Alpha virt. eigenvalues --    0.56940   0.59421   0.59722   0.60110   0.60547
 Alpha virt. eigenvalues --    0.62823   0.63717   0.64547   0.66773   0.67672
 Alpha virt. eigenvalues --    0.68782   0.69180   0.71603   0.72080   0.72884
 Alpha virt. eigenvalues --    0.73363   0.75534   0.77170   0.77962   0.78416
 Alpha virt. eigenvalues --    0.78714   0.80518   0.81079   0.81344   0.84205
 Alpha virt. eigenvalues --    0.90217   0.92163   0.92858   1.02498   1.03971
 Alpha virt. eigenvalues --    1.09951   1.13233   1.22711   1.23646   1.27716
 Alpha virt. eigenvalues --    1.29492   1.33881   1.35627   1.38728   1.39252
 Alpha virt. eigenvalues --    1.42905   1.45709   1.46891   1.52428   1.53744
 Alpha virt. eigenvalues --    1.59119   1.60329   1.61839   1.62861   1.65148
 Alpha virt. eigenvalues --    1.65657   1.67460   1.68271   1.71370   1.74313
 Alpha virt. eigenvalues --    1.77222   1.78062   1.79222   1.81059   1.81891
 Alpha virt. eigenvalues --    1.83021   1.84771   1.88785   1.88892   1.88982
 Alpha virt. eigenvalues --    1.90637   1.91837   1.98354   1.99218   2.00539
 Alpha virt. eigenvalues --    2.02092   2.02580   2.03122   2.03550   2.07470
 Alpha virt. eigenvalues --    2.10189   2.11391   2.16552   2.17366   2.18368
 Alpha virt. eigenvalues --    2.18568   2.20212   2.21407   2.24901   2.26227
 Alpha virt. eigenvalues --    2.27542   2.28296   2.28988   2.30253   2.31037
 Alpha virt. eigenvalues --    2.33307   2.34257   2.35118   2.37214   2.37316
 Alpha virt. eigenvalues --    2.41809   2.42289   2.45630   2.48797   2.50018
 Alpha virt. eigenvalues --    2.52245   2.52540   2.53474   2.57227   2.59361
 Alpha virt. eigenvalues --    2.60324   2.62205   2.65106   2.66033   2.69024
 Alpha virt. eigenvalues --    2.71452   2.72683   2.74468   2.74663   2.75258
 Alpha virt. eigenvalues --    2.77196   2.79717   2.81097   2.83600   2.84316
 Alpha virt. eigenvalues --    2.84667   2.97773   3.09246   3.13864   3.16118
 Alpha virt. eigenvalues --    3.16992   3.17196   3.20468   3.21654   3.25627
 Alpha virt. eigenvalues --    3.29534   3.29804   3.31248   3.33045   3.34914
 Alpha virt. eigenvalues --    3.37061   3.39177   3.95165   4.28156   4.31569
 Alpha virt. eigenvalues --    4.39232   4.40813   4.61602   4.63182   4.69022
 Alpha virt. eigenvalues --    4.77697   4.78826
          Condensed to atoms (all electrons):
               1          2          3          4          5          6
     1  C    4.931181  -0.043964  -0.043971  -0.042013  -0.041771   0.377368
     2  C   -0.043964   4.954085  -0.045565  -0.062007   0.003675   0.363920
     3  C   -0.043971  -0.045565   4.952532   0.003704  -0.061979  -0.016097
     4  C   -0.042013  -0.062007   0.003704   5.030840  -0.047421   0.349969
     5  C   -0.041771   0.003675  -0.061979  -0.047421   5.033752  -0.015491
     6  C    0.377368   0.363920  -0.016097   0.349969  -0.015491   4.943129
     7  C    0.377376  -0.016200   0.363947  -0.015537   0.349785  -0.029681
     8  C   -0.020287   0.374242   0.373822  -0.082848  -0.083422  -0.043085
     9  C   -0.019474  -0.074972  -0.073735   0.372766   0.371883  -0.046786
    10  N    0.000266   0.003680   0.003349  -0.045086  -0.043744   0.003279
    11  H    0.385778  -0.003084  -0.003094   0.004736   0.004703  -0.033655
    12  H    0.381567   0.004518   0.004509  -0.003079  -0.003116  -0.035644
    13  H    0.004340   0.378070   0.004571  -0.001877  -0.000259  -0.036113
    14  H   -0.003347   0.392955  -0.006509   0.005342   0.000066  -0.030484
    15  H   -0.003365  -0.006575   0.393247   0.000069   0.005354  -0.000824
    16  H    0.004337   0.004598   0.377895  -0.000266  -0.001826   0.000307
    17  H   -0.003247   0.005395  -0.000031   0.381649  -0.006918  -0.026509
    18  H    0.004120  -0.003319  -0.000100   0.371786   0.004359  -0.027036
    19  H    0.004128  -0.000101  -0.003221   0.004294   0.374941   0.000199
    20  H   -0.003200  -0.000027   0.005355  -0.006847   0.379376  -0.000685
    21  H   -0.030874  -0.032847  -0.000144  -0.033597  -0.000017   0.392102
    22  H   -0.030989  -0.000143  -0.032705  -0.000020  -0.033340   0.003905
    23  H    0.000281  -0.030117  -0.030683   0.003702   0.003608   0.004747
    24  H    0.000030  -0.000147  -0.000104   0.002076  -0.002923  -0.000106
    25  H    0.000004  -0.000219   0.000045   0.003409   0.002173  -0.000039
    26  H    0.000038   0.000008  -0.000143  -0.002157   0.003498  -0.000041
               7          8          9         10         11         12
     1  C    0.377376  -0.020287  -0.019474   0.000266   0.385778   0.381567
     2  C   -0.016200   0.374242  -0.074972   0.003680  -0.003084   0.004518
     3  C    0.363947   0.373822  -0.073735   0.003349  -0.003094   0.004509
     4  C   -0.015537  -0.082848   0.372766  -0.045086   0.004736  -0.003079
     5  C    0.349785  -0.083422   0.371883  -0.043744   0.004703  -0.003116
     6  C   -0.029681  -0.043085  -0.046786   0.003279  -0.033655  -0.035644
     7  C    4.944769  -0.043203  -0.047062   0.003444  -0.033655  -0.035653
     8  C   -0.043203   5.079599   0.345724  -0.040940  -0.001882   0.000731
     9  C   -0.047062   0.345724   5.198384   0.106612   0.000973  -0.002637
    10  N    0.003444  -0.040940   0.106612   6.625094   0.000006  -0.000013
    11  H   -0.033655  -0.001882   0.000973   0.000006   0.573054  -0.027905
    12  H   -0.035653   0.000731  -0.002637  -0.000013  -0.027905   0.593761
    13  H    0.000304  -0.034366  -0.002666   0.000022  -0.000032  -0.000157
    14  H   -0.000832  -0.035771   0.005799  -0.000049   0.002783   0.000005
    15  H   -0.030439  -0.035845   0.005748  -0.000050   0.002778   0.000006
    16  H   -0.036098  -0.034172  -0.002774   0.000082  -0.000033  -0.000156
    17  H   -0.000712   0.005645  -0.037436   0.001103  -0.000010   0.002918
    18  H    0.000200  -0.002788  -0.036008  -0.008265  -0.000140  -0.000050
    19  H   -0.027196  -0.002818  -0.038175  -0.006575  -0.000142  -0.000051
    20  H   -0.026578   0.005699  -0.035582   0.000227  -0.000011   0.002893
    21  H    0.003904   0.005513   0.005249  -0.000105  -0.003001  -0.003220
    22  H    0.391947   0.005510   0.005175  -0.000099  -0.002963  -0.003217
    23  H    0.004829   0.378753  -0.045033  -0.004977  -0.000020   0.000018
    24  H   -0.000068   0.002993  -0.017401   0.324430  -0.000001   0.000001
    25  H    0.000029  -0.001547  -0.018637   0.323443  -0.000001   0.000001
    26  H   -0.000122   0.001461  -0.016731   0.322086  -0.000001  -0.000000
              13         14         15         16         17         18
     1  C    0.004340  -0.003347  -0.003365   0.004337  -0.003247   0.004120
     2  C    0.378070   0.392955  -0.006575   0.004598   0.005395  -0.003319
     3  C    0.004571  -0.006509   0.393247   0.377895  -0.000031  -0.000100
     4  C   -0.001877   0.005342   0.000069  -0.000266   0.381649   0.371786
     5  C   -0.000259   0.000066   0.005354  -0.001826  -0.006918   0.004359
     6  C   -0.036113  -0.030484  -0.000824   0.000307  -0.026509  -0.027036
     7  C    0.000304  -0.000832  -0.030439  -0.036098  -0.000712   0.000200
     8  C   -0.034366  -0.035771  -0.035845  -0.034172   0.005645  -0.002788
     9  C   -0.002666   0.005799   0.005748  -0.002774  -0.037436  -0.036008
    10  N    0.000022  -0.000049  -0.000050   0.000082   0.001103  -0.008265
    11  H   -0.000032   0.002783   0.002778  -0.000033  -0.000010  -0.000140
    12  H   -0.000157   0.000005   0.000006  -0.000156   0.002918  -0.000050
    13  H    0.613739  -0.029626   0.000269  -0.000213   0.000038   0.003910
    14  H   -0.029626   0.563095   0.003228   0.000266  -0.000178  -0.000007
    15  H    0.000269   0.003228   0.562733  -0.029742   0.000008   0.000002
    16  H   -0.000213   0.000266  -0.029742   0.614146   0.000001  -0.000002
    17  H    0.000038  -0.000178   0.000008   0.000001   0.572507  -0.032922
    18  H    0.003910  -0.000007   0.000002  -0.000002  -0.032922   0.608984
    19  H   -0.000002   0.000002  -0.000005   0.003925   0.000179  -0.000198
    20  H    0.000001   0.000008  -0.000179   0.000037   0.004352   0.000203
    21  H   -0.003975  -0.000712  -0.000061   0.000016  -0.000676  -0.004205
    22  H    0.000016  -0.000061  -0.000703  -0.003981  -0.000062   0.000015
    23  H   -0.006007   0.000403   0.000446  -0.006021  -0.000078  -0.000063
    24  H    0.000003   0.000002   0.000002  -0.000015   0.000109  -0.000009
    25  H   -0.000044  -0.000010  -0.000019  -0.000069  -0.000088   0.000123
    26  H    0.000010   0.000000   0.000001   0.000006   0.000139   0.008196
              19         20         21         22         23         24
     1  C    0.004128  -0.003200  -0.030874  -0.030989   0.000281   0.000030
     2  C   -0.000101  -0.000027  -0.032847  -0.000143  -0.030117  -0.000147
     3  C   -0.003221   0.005355  -0.000144  -0.032705  -0.030683  -0.000104
     4  C    0.004294  -0.006847  -0.033597  -0.000020   0.003702   0.002076
     5  C    0.374941   0.379376  -0.000017  -0.033340   0.003608  -0.002923
     6  C    0.000199  -0.000685   0.392102   0.003905   0.004747  -0.000106
     7  C   -0.027196  -0.026578   0.003904   0.391947   0.004829  -0.000068
     8  C   -0.002818   0.005699   0.005513   0.005510   0.378753   0.002993
     9  C   -0.038175  -0.035582   0.005249   0.005175  -0.045033  -0.017401
    10  N   -0.006575   0.000227  -0.000105  -0.000099  -0.004977   0.324430
    11  H   -0.000142  -0.000011  -0.003001  -0.002963  -0.000020  -0.000001
    12  H   -0.000051   0.002893  -0.003220  -0.003217   0.000018   0.000001
    13  H   -0.000002   0.000001  -0.003975   0.000016  -0.006007   0.000003
    14  H    0.000002   0.000008  -0.000712  -0.000061   0.000403   0.000002
    15  H   -0.000005  -0.000179  -0.000061  -0.000703   0.000446   0.000002
    16  H    0.003925   0.000037   0.000016  -0.003981  -0.006021  -0.000015
    17  H    0.000179   0.004352  -0.000676  -0.000062  -0.000078   0.000109
    18  H   -0.000198   0.000203  -0.004205   0.000015  -0.000063  -0.000009
    19  H    0.607624  -0.033230   0.000015  -0.004163  -0.000091   0.003959
    20  H   -0.033230   0.573433  -0.000062  -0.000622  -0.000079   0.001588
    21  H    0.000015  -0.000062   0.577060  -0.000089  -0.000165   0.000003
    22  H   -0.004163  -0.000622  -0.000089   0.576751  -0.000165  -0.000010
    23  H   -0.000091  -0.000079  -0.000165  -0.000165   0.616683   0.000082
    24  H    0.003959   0.001588   0.000003  -0.000010   0.000082   0.353663
    25  H    0.000674  -0.000110   0.000002  -0.000000   0.007904  -0.014168
    26  H    0.000014  -0.000137  -0.000013   0.000003   0.000103  -0.014543
              25         26
     1  C    0.000004   0.000038
     2  C   -0.000219   0.000008
     3  C    0.000045  -0.000143
     4  C    0.003409  -0.002157
     5  C    0.002173   0.003498
     6  C   -0.000039  -0.000041
     7  C    0.000029  -0.000122
     8  C   -0.001547   0.001461
     9  C   -0.018637  -0.016731
    10  N    0.323443   0.322086
    11  H   -0.000001  -0.000001
    12  H    0.000001  -0.000000
    13  H   -0.000044   0.000010
    14  H   -0.000010   0.000000
    15  H   -0.000019   0.000001
    16  H   -0.000069   0.000006
    17  H   -0.000088   0.000139
    18  H    0.000123   0.008196
    19  H    0.000674   0.000014
    20  H   -0.000110  -0.000137
    21  H    0.000002  -0.000013
    22  H   -0.000000   0.000003
    23  H    0.007904   0.000103
    24  H   -0.014168  -0.014543
    25  H    0.352657  -0.014277
    26  H   -0.014277   0.355245
 Mulliken charges:
               1
     1  C   -0.184309
     2  C   -0.165858
     3  C   -0.164893
     4  C   -0.191587
     5  C   -0.194944
     6  C   -0.096648
     7  C   -0.097500
     8  C   -0.116718
     9  C    0.096795
    10  N   -0.567221
    11  H    0.134819
    12  H    0.123972
    13  H    0.110043
    14  H    0.133632
    15  H    0.133918
    16  H    0.109750
    17  H    0.134822
    18  H    0.113212
    19  H    0.116013
    20  H    0.134176
    21  H    0.129900
    22  H    0.130011
    23  H    0.101942
    24  H    0.360552
    25  H    0.358766
    26  H    0.357356
 Sum of Mulliken charges =   1.00000
 Mulliken charges with hydrogens summed into heavy atoms:
               1
     1  C    0.074482
     2  C    0.077817
     3  C    0.078775
     4  C    0.056447
     5  C    0.055245
     6  C    0.033251
     7  C    0.032510
     8  C   -0.014776
     9  C    0.096795
    10  N    0.509453
 Electronic spatial extent (au):  <R**2>=           1173.9542
 Charge=              1.0000 electrons
 Dipole moment (field-independent basis, Debye):
    X=              7.5341    Y=             -0.0122    Z=              0.1230  Tot=              7.5351
 Quadrupole moment (field-independent basis, Debye-Ang):
   XX=            -30.2293   YY=            -54.4064   ZZ=            -55.2560
   XY=             -0.0352   XZ=              0.7542   YZ=              0.0011
 Traceless Quadrupole moment (field-independent basis, Debye-Ang):
   XX=             16.4013   YY=             -7.7759   ZZ=             -8.6254
   XY=             -0.0352   XZ=              0.7542   YZ=              0.0011
 Octapole moment (field-independent basis, Debye-Ang**2):
  XXX=             81.7307  YYY=              0.7552  ZZZ=              0.2797  XYY=              7.3998
  XXY=             -0.1233  XXZ=              3.2500  XZZ=              7.4898  YZZ=             -0.7955
  YYZ=             -1.5244  XYZ=              0.1158
 Hexadecapole moment (field-independent basis, Debye-Ang**3):
 XXXX=           -403.2108 YYYY=           -468.7530 ZZZZ=           -369.9202 XXXY=             -0.3973
 XXXZ=              1.9822 YYYX=              2.2487 YYYZ=              0.1051 ZZZX=              5.0320
 ZZZY=             -0.3116 XXYY=           -165.1613 XXZZ=           -150.9723 YYZZ=           -143.2791
 XXYZ=              0.6389 YYXZ=              0.7858 ZZXY=             -2.3440
 N-N= 6.060954797868D+02 E-N=-2.141355412103D+03  KE= 4.031707385526D+02
 1\1\GINC-CPU208\FOpt\RB3LYP\6-31G(d,p)\C9H16N1(1+)\FEBRERMA\05-Feb-202
 4\0\\# B3LYP/6-31G** opt=Modredundant\\G9\\1,1\C,9.7925877734,37.86049
 68466,28.8884357398\C,7.7180040046,38.8805959831,29.9421743837\C,8.276
 9354492,36.5182814428,30.423598366\C,9.8115492542,39.5564214492,30.782
 4575306\C,10.3743710757,37.1771064002,31.2672957334\C,9.1507030369,39.
 1746308559,29.4382491115\C,9.7343249217,36.7070427558,29.9410808061\C,
 8.0045251878,37.8847673516,31.0842725511\C,9.4256433731,38.3310708815,
 31.6248659235\N,9.4340965139,38.6413261811,33.1373961495\H,9.264362425
 4,37.5506856972,27.9813450759\H,10.8365760728,38.0516808051,28.6149896
 443\H,7.2467708595,39.7895828009,30.3335805988\H,7.0703006129,38.47367
 98819,29.1630372216\H,7.5881500525,36.2842083136,29.6093638988\H,8.211
 1411742,35.7128464773,31.1642213783\H,10.8926172942,39.7003832864,30.6
 92069246\H,9.379099328,40.4831877883,31.1830957632\H,10.3500271068,36.
 377631617,32.0193864157\H,11.4153352603,37.4915322824,31.1419995571\H,
 9.1840055975,39.982210396,28.7037596698\H,10.1769515987,35.7846251463,
 29.5590814687\H,7.1974246599,37.8447960611,31.8250837273\H,10.23424676
 54,38.2024323636,33.604942963\H,8.5826252815,38.2957109043,33.59226032
 46\H,9.4904253198,39.6504620309,33.3111527518\\Version=ES64L-G16RevA.0
 3\State=1-A\HF=-407.1377644\RMSD=6.150e-09\RMSF=2.862e-03\Dipole=0.338
 6861,0.6598318,2.8702637\Quadrupole=-6.2064127,-4.9366113,11.1430241,0
 .2726666,1.8527046,3.8599576\PG=C01 [X(C9H16N1)]\\@


 A BIRD IN THE HAND IS SAFER THAN ONE OVERHEAD.

                       -- NEWTON'S SEVENTH LAW
 Job cpu time:       0 days  0 hours 19 minutes  6.5 seconds.
 Elapsed time:       0 days  0 hours  2 minutes 26.0 seconds.
 File lengths (MBytes):  RWF=     40 Int=      0 D2E=      0 Chk=      6 Scr=      1
 Normal termination of Gaussian 16 at Mon Feb  5 15:24:49 2024.
