 Entering Gaussian System, Link 0=g16
 Initial command:
 /opt/ebsofts/Gaussian/g16/l1.exe "/scratch/Gau-1435594.inp" -scrdir="/scratch/"
 Entering Link 1 = /opt/ebsofts/Gaussian/g16/l1.exe PID=   1435595.
  
 Copyright (c) 1988,1990,1992,1993,1995,1998,2003,2009,2016,
            Gaussian, Inc.  All Rights Reserved.
  
 This is part of the Gaussian(R) 16 program.  It is based on
 the Gaussian(R) 09 system (copyright 2009, Gaussian, Inc.),
 the Gaussian(R) 03 system (copyright 2003, Gaussian, Inc.),
 the Gaussian(R) 98 system (copyright 1998, Gaussian, Inc.),
 the Gaussian(R) 94 system (copyright 1995, Gaussian, Inc.),
 the Gaussian 92(TM) system (copyright 1992, Gaussian, Inc.),
 the Gaussian 90(TM) system (copyright 1990, Gaussian, Inc.),
 the Gaussian 88(TM) system (copyright 1988, Gaussian, Inc.),
 the Gaussian 86(TM) system (copyright 1986, Carnegie Mellon
 University), and the Gaussian 82(TM) system (copyright 1983,
 Carnegie Mellon University). Gaussian is a federally registered
 trademark of Gaussian, Inc.
  
 This software contains proprietary and confidential information,
 including trade secrets, belonging to Gaussian, Inc.
  
 This software is provided under written license and may be
 used, copied, transmitted, or stored only in accord with that
 written license.
  
 The following legend is applicable only to US Government
 contracts under FAR:
  
                    RESTRICTED RIGHTS LEGEND
  
 Use, reproduction and disclosure by the US Government is
 subject to restrictions as set forth in subparagraphs (a)
 and (c) of the Commercial Computer Software - Restricted
 Rights clause in FAR 52.227-19.
  
 Gaussian, Inc.
 340 Quinnipiac St., Bldg. 40, Wallingford CT 06492
  
  
 ---------------------------------------------------------------
 Warning -- This program may not be used in any manner that
 competes with the business of Gaussian, Inc. or will provide
 assistance to any competitor of Gaussian, Inc.  The licensee
 of this program is prohibited from giving any competitor of
 Gaussian, Inc. access to this program.  By using this program,
 the user acknowledges that Gaussian, Inc. is engaged in the
 business of creating and licensing software in the field of
 computational chemistry and represents and warrants to the
 licensee that it is not a competitor of Gaussian, Inc. and that
 it will not use this program in any manner prohibited above.
 ---------------------------------------------------------------
  

 Cite this work as:
 Gaussian 16, Revision A.03,
 M. J. Frisch, G. W. Trucks, H. B. Schlegel, G. E. Scuseria, 
 M. A. Robb, J. R. Cheeseman, G. Scalmani, V. Barone, 
 G. A. Petersson, H. Nakatsuji, X. Li, M. Caricato, A. V. Marenich, 
 J. Bloino, B. G. Janesko, R. Gomperts, B. Mennucci, H. P. Hratchian, 
 J. V. Ortiz, A. F. Izmaylov, J. L. Sonnenberg, D. Williams-Young, 
 F. Ding, F. Lipparini, F. Egidi, J. Goings, B. Peng, A. Petrone, 
 T. Henderson, D. Ranasinghe, V. G. Zakrzewski, J. Gao, N. Rega, 
 G. Zheng, W. Liang, M. Hada, M. Ehara, K. Toyota, R. Fukuda, 
 J. Hasegawa, M. Ishida, T. Nakajima, Y. Honda, O. Kitao, H. Nakai, 
 T. Vreven, K. Throssell, J. A. Montgomery, Jr., J. E. Peralta, 
 F. Ogliaro, M. J. Bearpark, J. J. Heyd, E. N. Brothers, K. N. Kudin, 
 V. N. Staroverov, T. A. Keith, R. Kobayashi, J. Normand, 
 K. Raghavachari, A. P. Rendell, J. C. Burant, S. S. Iyengar, 
 J. Tomasi, M. Cossi, J. M. Millam, M. Klene, C. Adamo, R. Cammi, 
 J. W. Ochterski, R. L. Martin, K. Morokuma, O. Farkas, 
 J. B. Foresman, and D. J. Fox, Gaussian, Inc., Wallingford CT, 2016.
 
 ******************************************
 Gaussian 16:  ES64L-G16RevA.03 25-Dec-2016
                 5-Feb-2024 
 ******************************************
 %Chk=G9.chk
 %nprocshared=8
 Will use up to    8 processors via shared memory.
 %mem=1GB
 ----------------------------------------------------------------------
 # HF/6-31G** SCRF=(Solvent=Water) POP=MK iop(6/50=1) geom=allcheck gue
 ss=read
 ----------------------------------------------------------------------
 1/29=7,38=1,172=1/1;
 2/12=2,40=1/2;
 3/5=1,6=6,7=101,11=9,14=-4,25=1,30=1,70=2201,72=1,116=-2/1,2,3;
 4/5=1/1;
 5/5=2,38=6,53=1/2;
 6/7=2,8=2,9=2,10=2,15=8,20=1,28=1,50=1/1,2;
 99/5=1,9=1/99;
 Structure from the checkpoint file:  "G9.chk"
 --
 G9
 --
 Charge =  1 Multiplicity = 1
 Redundant internal coordinates found in file.  (old form).
 C,0,9.7925877734,37.8604968466,28.8884357398
 C,0,7.7180040046,38.8805959831,29.9421743837
 C,0,8.2769354492,36.5182814428,30.423598366
 C,0,9.8115492542,39.5564214492,30.7824575306
 C,0,10.3743710757,37.1771064002,31.2672957334
 C,0,9.1507030369,39.1746308559,29.4382491115
 C,0,9.7343249217,36.7070427558,29.9410808061
 C,0,8.0045251878,37.8847673516,31.0842725511
 C,0,9.4256433731,38.3310708815,31.6248659235
 N,0,9.4340965139,38.6413261811,33.1373961495
 H,0,9.2643624254,37.5506856972,27.9813450759
 H,0,10.8365760728,38.0516808051,28.6149896443
 H,0,7.2467708595,39.7895828009,30.3335805988
 H,0,7.0703006129,38.4736798819,29.1630372216
 H,0,7.5881500525,36.2842083136,29.6093638988
 H,0,8.2111411742,35.7128464773,31.1642213783
 H,0,10.8926172942,39.7003832864,30.692069246
 H,0,9.379099328,40.4831877883,31.1830957632
 H,0,10.3500271068,36.377631617,32.0193864157
 H,0,11.4153352603,37.4915322824,31.1419995571
 H,0,9.1840055975,39.982210396,28.7037596698
 H,0,10.1769515987,35.7846251463,29.5590814687
 H,0,7.1974246599,37.8447960611,31.8250837273
 H,0,10.2342467654,38.2024323636,33.604942963
 H,0,8.5826252815,38.2957109043,33.5922603246
 H,0,9.4904253198,39.6504620309,33.3111527518
 Recover connectivity data from disk.
                           ----------------------------
                           !    Current Parameters    !
                           ! (Angstroms and Degrees)  !
 --------------------------                            --------------------------
 ! Name  Definition              Value                                          !
 --------------------------------------------------------------------------------
 ! R1    R(1,6)                  1.5625                                         !
 ! R2    R(1,7)                  1.5627                                         !
 ! R3    R(1,11)                 1.0944                                         !
 ! R4    R(1,12)                 1.096                                          !
 ! R5    R(2,6)                  1.5469                                         !
 ! R6    R(2,8)                  1.5421                                         !
 ! R7    R(2,13)                 1.0961                                         !
 ! R8    R(2,14)                 1.0919                                         !
 ! R9    R(3,7)                  1.5468                                         !
 ! R10   R(3,8)                  1.5421                                         !
 ! R11   R(3,15)                 1.0919                                         !
 ! R12   R(3,16)                 1.0962                                         !
 ! R13   R(4,6)                  1.5458                                         !
 ! R14   R(4,9)                  1.5362                                         !
 ! R15   R(4,17)                 1.0944                                         !
 ! R16   R(4,18)                 1.0984                                         !
 ! R17   R(5,7)                  1.5458                                         !
 ! R18   R(5,9)                  1.5361                                         !
 ! R19   R(5,19)                 1.0979                                         !
 ! R20   R(5,20)                 1.0946                                         !
 ! R21   R(6,21)                 1.0921                                         !
 ! R22   R(7,22)                 1.0921                                         !
 ! R23   R(8,9)                  1.5846                                         !
 ! R24   R(8,23)                 1.0963                                         !
 ! R25   R(9,10)                 1.544                                          !
 ! R26   R(10,24)                1.0254                                         !
 ! R27   R(10,25)                1.0254                                         !
 ! R28   R(10,26)                1.0255                                         !
 ! A1    A(6,1,7)              111.6209                                         !
 ! A2    A(6,1,11)             109.3574                                         !
 ! A3    A(6,1,12)             109.4145                                         !
 ! A4    A(7,1,11)             109.3516                                         !
 ! A5    A(7,1,12)             109.4106                                         !
 ! A6    A(11,1,12)            107.5976                                         !
 ! A7    A(6,2,8)              101.0649                                         !
 ! A8    A(6,2,13)             110.9071                                         !
 ! A9    A(6,2,14)             112.8168                                         !
 ! A10   A(8,2,13)             110.5436                                         !
 ! A11   A(8,2,14)             113.4557                                         !
 ! A12   A(13,2,14)            107.989                                          !
 ! A13   A(7,3,8)              101.067                                          !
 ! A14   A(7,3,15)             112.8247                                         !
 ! A15   A(7,3,16)             110.9159                                         !
 ! A16   A(8,3,15)             113.4546                                         !
 ! A17   A(8,3,16)             110.5508                                         !
 ! A18   A(15,3,16)            107.9666                                         !
 ! A19   A(6,4,9)               99.9305                                         !
 ! A20   A(6,4,17)             112.5195                                         !
 ! A21   A(6,4,18)             110.933                                          !
 ! A22   A(9,4,17)             113.4763                                         !
 ! A23   A(9,4,18)             111.968                                          !
 ! A24   A(17,4,18)            107.943                                          !
 ! A25   A(7,5,9)               99.9289                                         !
 ! A26   A(7,5,19)             110.9224                                         !
 ! A27   A(7,5,20)             112.514                                          !
 ! A28   A(9,5,19)             111.9552                                         !
 ! A29   A(9,5,20)             113.4663                                         !
 ! A30   A(19,5,20)            107.979                                          !
 ! A31   A(1,6,2)              109.5874                                         !
 ! A32   A(1,6,4)              109.7619                                         !
 ! A33   A(1,6,21)             111.885                                          !
 ! A34   A(2,6,4)               99.1846                                         !
 ! A35   A(2,6,21)             112.822                                          !
 ! A36   A(4,6,21)             112.9022                                         !
 ! A37   A(1,7,3)              109.5939                                         !
 ! A38   A(1,7,5)              109.7574                                         !
 ! A39   A(1,7,22)             111.883                                          !
 ! A40   A(3,7,5)               99.1839                                         !
 ! A41   A(3,7,22)             112.8253                                         !
 ! A42   A(5,7,22)             112.9                                            !
 ! A43   A(2,8,3)              106.7231                                         !
 ! A44   A(2,8,9)              103.7336                                         !
 ! A45   A(2,8,23)             112.7817                                         !
 ! A46   A(3,8,9)              103.728                                          !
 ! A47   A(3,8,23)             112.7842                                         !
 ! A48   A(9,8,23)             116.1036                                         !
 ! A49   A(4,9,5)              108.446                                          !
 ! A50   A(4,9,8)              105.2398                                         !
 ! A51   A(4,9,10)             112.0561                                         !
 ! A52   A(5,9,8)              105.2424                                         !
 ! A53   A(5,9,10)             112.0612                                         !
 ! A54   A(8,9,10)             113.3091                                         !
 ! A55   A(9,10,24)            111.4027                                         !
 ! A56   A(9,10,25)            111.2406                                         !
 ! A57   A(9,10,26)            111.3458                                         !
 ! A58   A(24,10,25)           107.5446                                         !
 ! A59   A(24,10,26)           107.5213                                         !
 ! A60   A(25,10,26)           107.5855                                         !
 ! D1    D(7,1,6,2)            -53.7582         Frozen                          !
 ! D2    D(7,1,6,4)             54.1723         Frozen                          !
 ! D3    D(7,1,6,21)          -179.6747         Frozen                          !
 ! D4    D(11,1,6,2)            67.376          Frozen                          !
 ! D5    D(11,1,6,4)           175.3065         Frozen                          !
 ! D6    D(11,1,6,21)          -58.5404         Frozen                          !
 ! D7    D(12,1,6,2)          -175.0054         Frozen                          !
 ! D8    D(12,1,6,4)           -67.0749         Frozen                          !
 ! D9    D(12,1,6,21)           59.0781         Frozen                          !
 ! D10   D(6,1,7,3)             53.7576         Frozen                          !
 ! D11   D(6,1,7,5)            -54.1731         Frozen                          !
 ! D12   D(6,1,7,22)           179.6816         Frozen                          !
 ! D13   D(11,1,7,3)           -67.3801         Frozen                          !
 ! D14   D(11,1,7,5)          -175.3107         Frozen                          !
 ! D15   D(11,1,7,22)           58.544          Frozen                          !
 ! D16   D(12,1,7,3)           175.007          Frozen                          !
 ! D17   D(12,1,7,5)            67.0764         Frozen                          !
 ! D18   D(12,1,7,22)          -59.0689         Frozen                          !
 ! D19   D(8,2,6,1)             62.7624         Frozen                          !
 ! D20   D(8,2,6,4)            -52.1401         Frozen                          !
 ! D21   D(8,2,6,21)          -171.8584         Frozen                          !
 ! D22   D(13,2,6,1)           179.9865         Frozen                          !
 ! D23   D(13,2,6,4)            65.084          Frozen                          !
 ! D24   D(13,2,6,21)          -54.6343         Frozen                          !
 ! D25   D(14,2,6,1)           -58.723          Frozen                          !
 ! D26   D(14,2,6,4)          -173.6255         Frozen                          !
 ! D27   D(14,2,6,21)           66.6562         Frozen                          !
 ! D28   D(6,2,8,3)            -78.3397         Frozen                          !
 ! D29   D(6,2,8,9)             30.8391         Frozen                          !
 ! D30   D(6,2,8,23)           157.2743         Frozen                          !
 ! D31   D(13,2,8,3)           164.1705         Frozen                          !
 ! D32   D(13,2,8,9)           -86.6508         Frozen                          !
 ! D33   D(13,2,8,23)           39.7845         Frozen                          !
 ! D34   D(14,2,8,3)            42.696          Frozen                          !
 ! D35   D(14,2,8,9)           151.8748         Frozen                          !
 ! D36   D(14,2,8,23)          -81.69           Frozen                          !
 ! D37   D(8,3,7,1)            -62.7546         Frozen                          !
 ! D38   D(8,3,7,5)             52.1447         Frozen                          !
 ! D39   D(8,3,7,22)           171.8615         Frozen                          !
 ! D40   D(15,3,7,1)            58.7346         Frozen                          !
 ! D41   D(15,3,7,5)           173.634          Frozen                          !
 ! D42   D(15,3,7,22)          -66.6492         Frozen                          !
 ! D43   D(16,3,7,1)          -179.9918         Frozen                          !
 ! D44   D(16,3,7,5)           -65.0924         Frozen                          !
 ! D45   D(16,3,7,22)           54.6244         Frozen                          !
 ! D46   D(7,3,8,2)             78.3365         Frozen                          !
 ! D47   D(7,3,8,9)            -30.8462         Frozen                          !
 ! D48   D(7,3,8,23)          -157.279          Frozen                          !
 ! D49   D(15,3,8,2)           -42.7094         Frozen                          !
 ! D50   D(15,3,8,9)          -151.8921         Frozen                          !
 ! D51   D(15,3,8,23)           81.675          Frozen                          !
 ! D52   D(16,3,8,2)          -164.1594         Frozen                          !
 ! D53   D(16,3,8,9)            86.6579         Frozen                          !
 ! D54   D(16,3,8,23)          -39.7749         Frozen                          !
 ! D55   D(9,4,6,1)            -62.1534         Frozen                          !
 ! D56   D(9,4,6,2)             52.6142         Frozen                          !
 ! D57   D(9,4,6,21)           172.2733         Frozen                          !
 ! D58   D(17,4,6,1)            58.5372         Frozen                          !
 ! D59   D(17,4,6,2)           173.3049         Frozen                          !
 ! D60   D(17,4,6,21)          -67.0361         Frozen                          !
 ! D61   D(18,4,6,1)           179.5792         Frozen                          !
 ! D62   D(18,4,6,2)           -65.6532         Frozen                          !
 ! D63   D(18,4,6,21)           54.0059         Frozen                          !
 ! D64   D(6,4,9,5)             78.9875         Frozen                          !
 ! D65   D(6,4,9,8)            -33.2295         Frozen                          !
 ! D66   D(6,4,9,10)          -156.7943         Frozen                          !
 ! D67   D(17,4,9,5)           -41.0094         Frozen                          !
 ! D68   D(17,4,9,8)          -153.2264         Frozen                          !
 ! D69   D(17,4,9,10)           83.2088         Frozen                          !
 ! D70   D(18,4,9,5)          -163.5138         Frozen                          !
 ! D71   D(18,4,9,8)            84.2692         Frozen                          !
 ! D72   D(18,4,9,10)          -39.2956         Frozen                          !
 ! D73   D(9,5,7,1)             62.1575         Frozen                          !
 ! D74   D(9,5,7,3)            -52.6155         Frozen                          !
 ! D75   D(9,5,7,22)          -172.277          Frozen                          !
 ! D76   D(19,5,7,1)          -179.5949         Frozen                          !
 ! D77   D(19,5,7,3)            65.6321         Frozen                          !
 ! D78   D(19,5,7,22)          -54.0294         Frozen                          !
 ! D79   D(20,5,7,1)           -58.5179         Frozen                          !
 ! D80   D(20,5,7,3)          -173.291          Frozen                          !
 ! D81   D(20,5,7,22)           67.0475         Frozen                          !
 ! D82   D(7,5,9,4)            -78.9899         Frozen                          !
 ! D83   D(7,5,9,8)             33.2253         Frozen                          !
 ! D84   D(7,5,9,10)           156.7949         Frozen                          !
 ! D85   D(19,5,9,4)           163.5297         Frozen                          !
 ! D86   D(19,5,9,8)           -84.2551         Frozen                          !
 ! D87   D(19,5,9,10)           39.3145         Frozen                          !
 ! D88   D(20,5,9,4)            40.995          Frozen                          !
 ! D89   D(20,5,9,8)           153.2102         Frozen                          !
 ! D90   D(20,5,9,10)          -83.2202         Frozen                          !
 ! D91   D(2,8,9,4)              1.5418         Frozen                          !
 ! D92   D(2,8,9,5)           -112.9231         Frozen                          !
 ! D93   D(2,8,9,10)           124.3053         Frozen                          !
 ! D94   D(3,8,9,4)            112.9267         Frozen                          !
 ! D95   D(3,8,9,5)             -1.5383         Frozen                          !
 ! D96   D(3,8,9,10)          -124.3099         Frozen                          !
 ! D97   D(23,8,9,4)          -122.7662         Frozen                          !
 ! D98   D(23,8,9,5)           122.7688         Frozen                          !
 ! D99   D(23,8,9,10)           -0.0028         Frozen                          !
 ! D100  D(4,9,10,24)         -107.4231         Frozen                          !
 ! D101  D(4,9,10,25)          132.5953         Frozen                          !
 ! D102  D(4,9,10,26)           12.6002         Frozen                          !
 ! D103  D(5,9,10,24)           14.756          Frozen                          !
 ! D104  D(5,9,10,25)         -105.2257         Frozen                          !
 ! D105  D(5,9,10,26)          134.7792         Frozen                          !
 ! D106  D(8,9,10,24)          133.6699         Frozen                          !
 ! D107  D(8,9,10,25)           13.6883         Frozen                          !
 ! D108  D(8,9,10,26)         -106.3068         Frozen                          !
 --------------------------------------------------------------------------------
                          Input orientation:                          
 ---------------------------------------------------------------------
 Center     Atomic      Atomic             Coordinates (Angstroms)
 Number     Number       Type             X           Y           Z
 ---------------------------------------------------------------------
      1          6           0        9.792588   37.860497   28.888436
      2          6           0        7.718004   38.880596   29.942174
      3          6           0        8.276935   36.518281   30.423598
      4          6           0        9.811549   39.556421   30.782458
      5          6           0       10.374371   37.177106   31.267296
      6          6           0        9.150703   39.174631   29.438249
      7          6           0        9.734325   36.707043   29.941081
      8          6           0        8.004525   37.884767   31.084273
      9          6           0        9.425643   38.331071   31.624866
     10          7           0        9.434097   38.641326   33.137396
     11          1           0        9.264362   37.550686   27.981345
     12          1           0       10.836576   38.051681   28.614990
     13          1           0        7.246771   39.789583   30.333581
     14          1           0        7.070301   38.473680   29.163037
     15          1           0        7.588150   36.284208   29.609364
     16          1           0        8.211141   35.712846   31.164221
     17          1           0       10.892617   39.700383   30.692069
     18          1           0        9.379099   40.483188   31.183096
     19          1           0       10.350027   36.377632   32.019386
     20          1           0       11.415335   37.491532   31.142000
     21          1           0        9.184006   39.982210   28.703760
     22          1           0       10.176952   35.784625   29.559081
     23          1           0        7.197425   37.844796   31.825084
     24          1           0       10.234247   38.202432   33.604943
     25          1           0        8.582625   38.295711   33.592260
     26          1           0        9.490425   39.650462   33.311153
 ---------------------------------------------------------------------
                    Distance matrix (angstroms):
                    1          2          3          4          5
     1  C    0.000000
     2  C    2.540643   0.000000
     3  C    2.540761   2.474814   0.000000
     4  C    2.542408   2.354941   3.422589   0.000000
     5  C    2.542532   3.422588   2.354806   2.492584   0.000000
     6  C    1.562453   1.546940   2.964890   1.545761   2.972016
     7  C    1.562662   2.964774   1.546751   2.972009   1.545789
     8  C    2.831864   1.542128   1.542071   2.480092   2.480010
     9  C    2.800739   2.459565   2.459427   1.536248   1.536091
    10  N    4.334960   3.634786   3.634699   2.554527   2.554473
    11  H    1.094449   2.829264   2.829394   3.488355   3.488431
    12  H    1.096009   3.489128   3.489146   2.830696   2.830767
    13  H    3.505852   1.096137   3.430853   2.614181   4.180758
    14  H    2.803970   1.091859   2.620795   3.362930   4.126244
    15  H    2.804277   2.620850   1.091876   4.126382   3.362891
    16  H    3.506077   3.430921   1.096165   4.180923   2.614239
    17  H    2.801489   3.363415   4.127910   1.094351   2.639392
    18  H    3.509266   2.620577   4.184744   1.098371   3.453669
    19  H    3.508914   4.184159   2.619930   3.453210   1.097904
    20  H    2.801427   4.127873   3.363461   2.639160   1.094609
    21  H    2.214982   2.212778   3.972332   2.212711   3.982122
    22  H    2.215117   3.972181   2.212623   3.982037   2.212685
    23  H    3.919058   2.211161   2.211141   3.293991   3.293923
    24  H    4.749466   4.495248   4.097363   3.158858   2.556467
    25  H    4.876411   3.796418   3.645973   3.315816   3.141192
    26  H    4.780764   3.883837   4.429569   2.550738   3.328092
                    6          7          8          9         10
     6  C    0.000000
     7  C    2.585043   0.000000
     8  C    2.384715   2.384561   0.000000
     9  C    2.359762   2.359636   1.584615   0.000000
    10  N    3.748121   3.748069   2.613689   1.544046   0.000000
    11  H    2.184648   2.184757   3.365555   3.729646   5.272871
    12  H    2.186536   2.186670   3.761081   3.335887   4.771456
    13  H    2.191972   3.980457   2.183129   2.922697   3.736880
    14  H    2.212498   3.289891   2.216019   3.410070   4.627220
    15  H    3.290197   2.212440   2.215968   3.410026   4.627152
    16  H    3.980667   2.191937   2.183191   2.922723   3.736982
    17  H    2.209694   3.296318   3.433855   2.212948   3.037846
    18  H    2.192938   3.990997   2.941260   2.197484   2.686032
    19  H    3.990470   2.192477   2.940625   2.196829   2.685738
    20  H    3.296080   2.209847   3.433889   2.212885   3.037917
    21  H    1.092139   3.544085   3.384861   3.364151   4.638712
    22  H    3.543998   1.092106   3.384707   3.363973   4.638632
    23  H    3.358681   3.358543   1.096271   2.289434   2.712808
    24  H    4.413680   3.988734   3.380288   2.142683   1.025411
    25  H    4.283809   4.145044   2.606353   2.140694   1.025356
    26  H    3.916786   4.481137   3.206957   2.142091   1.025534
                   11         12         13         14         15
    11  H    0.000000
    12  H    1.767585   0.000000
    13  H    3.823133   4.342875   0.000000
    14  H    2.657484   3.829265   1.770004   0.000000
    15  H    2.657837   3.829492   3.595647   2.293722   0.000000
    16  H    3.823301   4.342999   4.270802   3.595616   1.769789
    17  H    3.823668   2.652474   3.664515   4.295677   4.874629
    18  H    4.343264   3.825132   2.397830   3.667330   4.828619
    19  H    4.342868   3.824799   4.910555   4.827914   3.666729
    20  H    3.823600   2.652265   4.828199   4.874447   4.295806
    21  H    2.537844   2.542796   2.538956   2.637110   4.128207
    22  H    2.537921   2.542824   5.022499   4.127850   2.637045
    23  H    4.374135   4.857049   2.451369   2.738274   2.738159
    24  H    5.743719   5.028435   4.705940   5.460280   5.161983
    25  H    5.701070   5.469284   3.825592   4.683675   4.571497
    26  H    5.732976   5.140250   3.730855   4.944561   5.352902
                   16         17         18         19         20
    16  H    0.000000
    17  H    4.828425   0.000000
    18  H    4.911277   1.773309   0.000000
    19  H    2.397515   3.618958   4.300892   0.000000
    20  H    3.664843   2.314021   3.619109   1.773546   0.000000
    21  H    5.022729   2.636694   2.536956   5.034479   4.138517
    22  H    2.538905   4.138720   5.034926   2.536673   2.636808
    23  H    2.451442   4.287351   3.483240   3.482704   4.287443
    24  H    4.030895   3.340979   3.434890   2.420184   2.822488
    25  H    3.564346   3.964880   3.350149   3.045763   3.830761
    26  H    4.663764   2.971234   2.287893   3.622015   3.615450
                   21         22         23         24         25
    21  H    0.000000
    22  H    4.397413   0.000000
    23  H    4.272904   4.272780   0.000000
    24  H    5.319043   4.713605   3.538091   0.000000
    25  H    5.206090   5.011383   2.290200   1.654302   0.000000
    26  H    4.629473   5.430843   3.275161   1.654199   1.654833
                   26
    26  H    0.000000
 Stoichiometry    C9H16N(1+)
 Framework group  C1[X(C9H16N)]
 Deg. of freedom    72
 Full point group                 C1      NOp   1
 Largest Abelian subgroup         C1      NOp   1
 Largest concise Abelian subgroup C1      NOp   1
                         Standard orientation:                         
 ---------------------------------------------------------------------
 Center     Atomic      Atomic             Coordinates (Angstroms)
 Number     Number       Type             X           Y           Z
 ---------------------------------------------------------------------
      1          6           0       -1.732056    0.000256   -0.866664
      2          6           0       -0.752146    1.237073    1.124548
      3          6           0       -0.751974   -1.237741    1.123882
      4          6           0        0.483906    1.246520   -0.879906
      5          6           0        0.484013   -1.246065   -0.880457
      6          6           0       -0.985925    1.292593   -0.403617
      7          6           0       -0.985819   -1.292450   -0.404110
      8          6           0        0.160958   -0.000337    1.239507
      9          6           0        0.968410   -0.000016   -0.123954
     10          7           0        2.499854    0.000048    0.072915
     11          1           0       -2.746446    0.000101   -0.455771
     12          1           0       -1.817163    0.000448   -1.959363
     13          1           0       -0.228865    2.134969    1.473083
     14          1           0       -1.680602    1.146285    1.691894
     15          1           0       -1.680345   -1.147437    1.691480
     16          1           0       -0.228760   -2.135833    1.472097
     17          1           0        0.569553    1.157662   -1.967275
     18          1           0        1.025167    2.150844   -0.570624
     19          1           0        1.025024   -2.150049   -0.571406
     20          1           0        0.569515   -1.156359   -1.968029
     21          1           0       -1.506945    2.198869   -0.719798
     22          1           0       -1.506782   -2.198543   -0.720793
     23          1           0        0.762228   -0.000524    2.156177
     24          1           0        2.955093   -0.690364   -0.533349
     25          1           0        2.749916   -0.226281    1.041212
     26          1           0        2.904232    0.916875   -0.145318
 ---------------------------------------------------------------------
 Rotational constants (GHZ):           1.9477712           1.4972822           1.3431006
 Standard basis: 6-31G(d,p) (6D, 7F)
 There are   230 symmetry adapted cartesian basis functions of A   symmetry.
 There are   230 symmetry adapted basis functions of A   symmetry.
   230 basis functions,   392 primitive gaussians,   230 cartesian basis functions
    38 alpha electrons       38 beta electrons
       nuclear repulsion energy       606.0954797868 Hartrees.
 NAtoms=   26 NActive=   26 NUniq=   26 SFac= 1.00D+00 NAtFMM=   60 NAOKFM=F Big=F
 Integral buffers will be    131072 words long.
 Raffenetti 1 integral format.
 Two-electron integral symmetry is turned on.
 ------------------------------------------------------------------------------
 Polarizable Continuum Model (PCM)
 =================================
 Model                : PCM.
 Atomic radii         : UFF (Universal Force Field).
 Polarization charges : Total charges.
 Charge compensation  : None.
 Solution method      : On-the-fly selection.
 Cavity type          : Scaled VdW (van der Waals Surface) (Alpha=1.100).
 Cavity algorithm     : GePol (No added spheres)
                        Default sphere list used, NSphG=   26.
                        Lebedev-Laikov grids with approx.  5.0 points / Ang**2.
                        Smoothing algorithm: York/Karplus (Gamma=1.0000).
                        Polarization charges: spherical gaussians, with
                                              point-specific exponents (IZeta= 3).
                        Self-potential: point-specific (ISelfS= 7).
                        Self-field    : sphere-specific E.n sum rule (ISelfD= 2).
 Solvent              : Water, Eps=  78.355300 Eps(inf)=   1.777849
 ------------------------------------------------------------------------------
 One-electron integrals computed using PRISM.
 NBasis=   230 RedAO= T EigKep=  1.54D-03  NBF=   230
 NBsUse=   230 1.00D-06 EigRej= -1.00D+00 NBFU=   230
 Initial guess from the checkpoint file:  "G9.chk"
 B after Tr=     0.000000    0.000000    0.000000
         Rot=    1.000000    0.000000    0.000000    0.000000 Ang=   0.00 deg.
 Requested convergence on RMS density matrix=1.00D-08 within 128 cycles.
 Requested convergence on MAX density matrix=1.00D-06.
 Requested convergence on             energy=1.00D-06.
 No special actions if energy rises.
 Inv3:  Mode=1 IEnd=     7766643.
 Iteration    1 A*A^-1 deviation from unit magnitude is 6.77D-15 for    885.
 Iteration    1 A*A^-1 deviation from orthogonality  is 7.09D-15 for    885    638.
 Iteration    1 A^-1*A deviation from unit magnitude is 5.66D-15 for    885.
 Iteration    1 A^-1*A deviation from orthogonality  is 6.06D-15 for   1599   1539.
 Error on total polarization charges =  0.00683
 SCF Done:  E(RHF) =  -404.484061322     A.U. after   11 cycles
            NFock= 11  Conv=0.46D-08     -V/T= 2.0019

 **********************************************************************

            Population analysis using the SCF density.

 **********************************************************************

 Orbital symmetries:
       Occupied  (A) (A) (A) (A) (A) (A) (A) (A) (A) (A) (A) (A)
                 (A) (A) (A) (A) (A) (A) (A) (A) (A) (A) (A) (A)
                 (A) (A) (A) (A) (A) (A) (A) (A) (A) (A) (A) (A)
                 (A) (A)
       Virtual   (A) (A) (A) (A) (A) (A) (A) (A) (A) (A) (A) (A)
                 (A) (A) (A) (A) (A) (A) (A) (A) (A) (A) (A) (A)
                 (A) (A) (A) (A) (A) (A) (A) (A) (A) (A) (A) (A)
                 (A) (A) (A) (A) (A) (A) (A) (A) (A) (A) (A) (A)
                 (A) (A) (A) (A) (A) (A) (A) (A) (A) (A) (A) (A)
                 (A) (A) (A) (A) (A) (A) (A) (A) (A) (A) (A) (A)
                 (A) (A) (A) (A) (A) (A) (A) (A) (A) (A) (A) (A)
                 (A) (A) (A) (A) (A) (A) (A) (A) (A) (A) (A) (A)
                 (A) (A) (A) (A) (A) (A) (A) (A) (A) (A) (A) (A)
                 (A) (A) (A) (A) (A) (A) (A) (A) (A) (A) (A) (A)
                 (A) (A) (A) (A) (A) (A) (A) (A) (A) (A) (A) (A)
                 (A) (A) (A) (A) (A) (A) (A) (A) (A) (A) (A) (A)
                 (A) (A) (A) (A) (A) (A) (A) (A) (A) (A) (A) (A)
                 (A) (A) (A) (A) (A) (A) (A) (A) (A) (A) (A) (A)
                 (A) (A) (A) (A) (A) (A) (A) (A) (A) (A) (A) (A)
                 (A) (A) (A) (A) (A) (A) (A) (A) (A) (A) (A) (A)
 The electronic state is 1-A.
 Alpha  occ. eigenvalues --  -15.70511 -11.31535 -11.24836 -11.24127 -11.24107
 Alpha  occ. eigenvalues --  -11.23958 -11.23954 -11.22974 -11.22581 -11.22574
 Alpha  occ. eigenvalues --   -1.31573  -1.19084  -1.06431  -1.02122  -1.01629
 Alpha  occ. eigenvalues --   -0.91128  -0.87338  -0.81697  -0.78189  -0.76435
 Alpha  occ. eigenvalues --   -0.75224  -0.73852  -0.70534  -0.63373  -0.63342
 Alpha  occ. eigenvalues --   -0.62225  -0.57601  -0.57237  -0.55038  -0.54761
 Alpha  occ. eigenvalues --   -0.52032  -0.51004  -0.47552  -0.47458  -0.45590
 Alpha  occ. eigenvalues --   -0.45070  -0.43484  -0.43392
 Alpha virt. eigenvalues --    0.17480   0.20714   0.23009   0.23580   0.24759
 Alpha virt. eigenvalues --    0.26252   0.26570   0.29327   0.29726   0.30417
 Alpha virt. eigenvalues --    0.30754   0.31758   0.32051   0.33288   0.34629
 Alpha virt. eigenvalues --    0.35644   0.36749   0.37482   0.38142   0.39005
 Alpha virt. eigenvalues --    0.40426   0.41285   0.41540   0.42685   0.45248
 Alpha virt. eigenvalues --    0.48089   0.50244   0.50979   0.68544   0.69922
 Alpha virt. eigenvalues --    0.72272   0.74669   0.74959   0.77130   0.78056
 Alpha virt. eigenvalues --    0.83911   0.84469   0.86625   0.87354   0.88239
 Alpha virt. eigenvalues --    0.90202   0.91491   0.91613   0.92268   0.93908
 Alpha virt. eigenvalues --    0.95407   0.99827   1.00101   1.00937   1.01559
 Alpha virt. eigenvalues --    1.03645   1.04585   1.05390   1.06878   1.07719
 Alpha virt. eigenvalues --    1.08872   1.09119   1.10847   1.11369   1.11661
 Alpha virt. eigenvalues --    1.12359   1.12852   1.15387   1.16747   1.17607
 Alpha virt. eigenvalues --    1.17707   1.19077   1.20626   1.21236   1.23005
 Alpha virt. eigenvalues --    1.28230   1.29766   1.31296   1.40885   1.42822
 Alpha virt. eigenvalues --    1.48670   1.52636   1.62850   1.64004   1.69636
 Alpha virt. eigenvalues --    1.71819   1.74246   1.75946   1.78937   1.80070
 Alpha virt. eigenvalues --    1.84080   1.87298   1.88732   1.95845   1.96078
 Alpha virt. eigenvalues --    2.03753   2.03817   2.06880   2.07042   2.09162
 Alpha virt. eigenvalues --    2.09637   2.10950   2.12905   2.15679   2.18326
 Alpha virt. eigenvalues --    2.21571   2.22819   2.24111   2.26080   2.27097
 Alpha virt. eigenvalues --    2.28117   2.29637   2.33266   2.33441   2.34773
 Alpha virt. eigenvalues --    2.36187   2.36851   2.44134   2.45580   2.46776
 Alpha virt. eigenvalues --    2.47493   2.48234   2.50695   2.51968   2.53367
 Alpha virt. eigenvalues --    2.55131   2.56575   2.61785   2.63269   2.63655
 Alpha virt. eigenvalues --    2.64309   2.65321   2.67239   2.70146   2.71428
 Alpha virt. eigenvalues --    2.73247   2.73413   2.74759   2.75525   2.76767
 Alpha virt. eigenvalues --    2.78966   2.80240   2.80605   2.82350   2.83002
 Alpha virt. eigenvalues --    2.87201   2.88652   2.92089   2.94585   2.97228
 Alpha virt. eigenvalues --    2.99162   2.99893   3.00717   3.05100   3.06783
 Alpha virt. eigenvalues --    3.07985   3.08555   3.12498   3.13366   3.17208
 Alpha virt. eigenvalues --    3.19392   3.20795   3.21607   3.23009   3.24875
 Alpha virt. eigenvalues --    3.26735   3.28427   3.28953   3.30691   3.32024
 Alpha virt. eigenvalues --    3.32553   3.52198   3.59465   3.64354   3.66370
 Alpha virt. eigenvalues --    3.69613   3.71045   3.71804   3.72603   3.77100
 Alpha virt. eigenvalues --    3.80012   3.80102   3.82750   3.83860   3.85456
 Alpha virt. eigenvalues --    3.87852   3.89906   4.52945   4.83648   4.88713
 Alpha virt. eigenvalues --    4.95550   4.97026   5.18191   5.20018   5.25391
 Alpha virt. eigenvalues --    5.34798   5.37008
          Condensed to atoms (all electrons):
               1          2          3          4          5          6
     1  C    5.002259  -0.062136  -0.062127  -0.061017  -0.060847   0.349108
     2  C   -0.062136   5.040161  -0.069301  -0.091666   0.006587   0.338671
     3  C   -0.062127  -0.069301   5.039447   0.006621  -0.091800  -0.003552
     4  C   -0.061017  -0.091666   0.006621   5.060129  -0.057586   0.334961
     5  C   -0.060847   0.006587  -0.091800  -0.057586   5.064677  -0.005263
     6  C    0.349108   0.338671  -0.003552   0.334961  -0.005263   5.118112
     7  C    0.349073  -0.003581   0.338605  -0.005279   0.334556  -0.044616
     8  C   -0.004326   0.345528   0.345412  -0.069904  -0.069894  -0.069038
     9  C   -0.005401  -0.075048  -0.074401   0.339588   0.338490  -0.066499
    10  N   -0.000208   0.003248   0.002897  -0.046105  -0.044336   0.003958
    11  H    0.409519  -0.003063  -0.003054   0.004500   0.004486  -0.038526
    12  H    0.407464   0.004422   0.004414  -0.002901  -0.002918  -0.039288
    13  H    0.004053   0.412849   0.004554  -0.003685  -0.000102  -0.037939
    14  H   -0.002868   0.415201  -0.006074   0.005252  -0.000144  -0.035871
    15  H   -0.002876  -0.006109   0.415386  -0.000143   0.005260   0.000667
    16  H    0.004053   0.004560   0.412856  -0.000105  -0.003691  -0.000313
    17  H   -0.003005   0.005265  -0.000195   0.412631  -0.004783  -0.032881
    18  H    0.003703  -0.005021  -0.000043   0.413948   0.003796  -0.032085
    19  H    0.003714  -0.000041  -0.004925   0.003768   0.415036  -0.000274
    20  H   -0.002989  -0.000194   0.005240  -0.004731   0.411793   0.000707
    21  H   -0.029078  -0.030824  -0.000413  -0.031224  -0.000318   0.417690
    22  H   -0.029148  -0.000413  -0.030747  -0.000316  -0.031116   0.003309
    23  H   -0.000287  -0.027395  -0.027976   0.001745   0.001729   0.004688
    24  H    0.000015  -0.000100  -0.000085   0.001229  -0.002431  -0.000079
    25  H    0.000001   0.000052   0.000147   0.002228   0.001274  -0.000076
    26  H    0.000021  -0.000009  -0.000087  -0.001706   0.002320   0.000027
               7          8          9         10         11         12
     1  C    0.349073  -0.004326  -0.005401  -0.000208   0.409519   0.407464
     2  C   -0.003581   0.345528  -0.075048   0.003248  -0.003063   0.004422
     3  C    0.338605   0.345412  -0.074401   0.002897  -0.003054   0.004414
     4  C   -0.005279  -0.069904   0.339588  -0.046105   0.004500  -0.002901
     5  C    0.334556  -0.069894   0.338490  -0.044336   0.004486  -0.002918
     6  C   -0.044616  -0.069038  -0.066499   0.003958  -0.038526  -0.039288
     7  C    5.118743  -0.069060  -0.066654   0.004084  -0.038511  -0.039281
     8  C   -0.069060   5.177398   0.337830  -0.044422  -0.000213  -0.000236
     9  C   -0.066654   0.337830   5.283566   0.150936   0.000038  -0.000541
    10  N    0.004084  -0.044422   0.150936   6.605612   0.000005  -0.000016
    11  H   -0.038511  -0.000213   0.000038   0.000005   0.556801  -0.024320
    12  H   -0.039281  -0.000236  -0.000541  -0.000016  -0.024320   0.563743
    13  H   -0.000315  -0.041051   0.000413  -0.000047  -0.000072  -0.000097
    14  H    0.000669  -0.037169   0.004550  -0.000027   0.001752  -0.000032
    15  H   -0.035848  -0.037229   0.004529  -0.000028   0.001751  -0.000033
    16  H   -0.037943  -0.040989   0.000393  -0.000018  -0.000073  -0.000096
    17  H    0.000697   0.003716  -0.039103   0.000514  -0.000044   0.001748
    18  H   -0.000270   0.001115  -0.042947  -0.004644  -0.000083  -0.000077
    19  H   -0.032033   0.001033  -0.043554  -0.004210  -0.000084  -0.000077
    20  H   -0.032645   0.003738  -0.038441   0.000070  -0.000045   0.001741
    21  H    0.003307   0.004762   0.004681  -0.000060  -0.002581  -0.002647
    22  H    0.417646   0.004763   0.004626  -0.000057  -0.002565  -0.002642
    23  H    0.004735   0.416579  -0.033155  -0.002485  -0.000018   0.000013
    24  H    0.000058   0.002089  -0.020554   0.339126  -0.000000   0.000000
    25  H   -0.000045  -0.001955  -0.020115   0.337650  -0.000000   0.000000
    26  H   -0.000103   0.001015  -0.020487   0.338390  -0.000000   0.000000
              13         14         15         16         17         18
     1  C    0.004053  -0.002868  -0.002876   0.004053  -0.003005   0.003703
     2  C    0.412849   0.415201  -0.006109   0.004560   0.005265  -0.005021
     3  C    0.004554  -0.006074   0.415386   0.412856  -0.000195  -0.000043
     4  C   -0.003685   0.005252  -0.000143  -0.000105   0.412631   0.413948
     5  C   -0.000102  -0.000144   0.005260  -0.003691  -0.004783   0.003796
     6  C   -0.037939  -0.035871   0.000667  -0.000313  -0.032881  -0.032085
     7  C   -0.000315   0.000669  -0.035848  -0.037943   0.000697  -0.000270
     8  C   -0.041051  -0.037169  -0.037229  -0.040989   0.003716   0.001115
     9  C    0.000413   0.004550   0.004529   0.000393  -0.039103  -0.042947
    10  N   -0.000047  -0.000027  -0.000028  -0.000018   0.000514  -0.004644
    11  H   -0.000072   0.001752   0.001751  -0.000073  -0.000044  -0.000083
    12  H   -0.000097  -0.000032  -0.000033  -0.000096   0.001748  -0.000077
    13  H    0.557918  -0.023689   0.000111  -0.000113  -0.000057   0.001314
    14  H   -0.023689   0.541867   0.000703   0.000110  -0.000079  -0.000074
    15  H    0.000111   0.000703   0.541628  -0.023736   0.000008   0.000002
    16  H   -0.000113   0.000110  -0.023736   0.557867   0.000002   0.000001
    17  H   -0.000057  -0.000079   0.000008   0.000002   0.521896  -0.022040
    18  H    0.001314  -0.000074   0.000002   0.000001  -0.022040   0.533298
    19  H    0.000001   0.000002  -0.000074   0.001346   0.000072  -0.000097
    20  H    0.000002   0.000008  -0.000080  -0.000057   0.001045   0.000086
    21  H   -0.002838  -0.000881  -0.000055   0.000011  -0.000845  -0.002926
    22  H    0.000011  -0.000055  -0.000876  -0.002843  -0.000042   0.000010
    23  H   -0.004455  -0.000115  -0.000098  -0.004475  -0.000031  -0.000082
    24  H    0.000003   0.000001   0.000002  -0.000010   0.000045   0.000042
    25  H   -0.000006  -0.000007  -0.000011   0.000001  -0.000063   0.000007
    26  H   -0.000009   0.000001   0.000001   0.000004   0.000133   0.002866
              19         20         21         22         23         24
     1  C    0.003714  -0.002989  -0.029078  -0.029148  -0.000287   0.000015
     2  C   -0.000041  -0.000194  -0.030824  -0.000413  -0.027395  -0.000100
     3  C   -0.004925   0.005240  -0.000413  -0.030747  -0.027976  -0.000085
     4  C    0.003768  -0.004731  -0.031224  -0.000316   0.001745   0.001229
     5  C    0.415036   0.411793  -0.000318  -0.031116   0.001729  -0.002431
     6  C   -0.000274   0.000707   0.417690   0.003309   0.004688  -0.000079
     7  C   -0.032033  -0.032645   0.003307   0.417646   0.004735   0.000058
     8  C    0.001033   0.003738   0.004762   0.004763   0.416579   0.002089
     9  C   -0.043554  -0.038441   0.004681   0.004626  -0.033155  -0.020554
    10  N   -0.004210   0.000070  -0.000060  -0.000057  -0.002485   0.339126
    11  H   -0.000084  -0.000045  -0.002581  -0.002565  -0.000018  -0.000000
    12  H   -0.000077   0.001741  -0.002647  -0.002642   0.000013   0.000000
    13  H    0.000001   0.000002  -0.002838   0.000011  -0.004455   0.000003
    14  H    0.000002   0.000008  -0.000881  -0.000055  -0.000115   0.000001
    15  H   -0.000074  -0.000080  -0.000055  -0.000876  -0.000098   0.000002
    16  H    0.001346  -0.000057   0.000011  -0.002843  -0.004475  -0.000010
    17  H    0.000072   0.001045  -0.000845  -0.000042  -0.000031   0.000045
    18  H   -0.000097   0.000086  -0.002926   0.000010  -0.000082   0.000042
    19  H    0.530865  -0.022232   0.000010  -0.002891  -0.000096   0.001140
    20  H   -0.022232   0.521582  -0.000042  -0.000820  -0.000032   0.000672
    21  H    0.000010  -0.000042   0.527261  -0.000057  -0.000079   0.000001
    22  H   -0.002891  -0.000820  -0.000057   0.527123  -0.000078  -0.000006
    23  H   -0.000096  -0.000032  -0.000079  -0.000078   0.508187   0.000030
    24  H    0.001140   0.000672   0.000001  -0.000006   0.000030   0.295170
    25  H    0.000262  -0.000059   0.000002   0.000001   0.002620  -0.010202
    26  H    0.000023  -0.000090  -0.000007   0.000001   0.000076  -0.010570
              25         26
     1  C    0.000001   0.000021
     2  C    0.000052  -0.000009
     3  C    0.000147  -0.000087
     4  C    0.002228  -0.001706
     5  C    0.001274   0.002320
     6  C   -0.000076   0.000027
     7  C   -0.000045  -0.000103
     8  C   -0.001955   0.001015
     9  C   -0.020115  -0.020487
    10  N    0.337650   0.338390
    11  H   -0.000000  -0.000000
    12  H    0.000000   0.000000
    13  H   -0.000006  -0.000009
    14  H   -0.000007   0.000001
    15  H   -0.000011   0.000001
    16  H    0.000001   0.000004
    17  H   -0.000063   0.000133
    18  H    0.000007   0.002866
    19  H    0.000262   0.000023
    20  H   -0.000059  -0.000090
    21  H    0.000002  -0.000007
    22  H    0.000001   0.000001
    23  H    0.002620   0.000076
    24  H   -0.010202  -0.010570
    25  H    0.294090  -0.010077
    26  H   -0.010077   0.295352
 Mulliken charges:
               1
     1  C   -0.206668
     2  C   -0.201641
     3  C   -0.200801
     4  C   -0.210228
     5  C   -0.214775
     6  C   -0.165598
     7  C   -0.165988
     8  C   -0.159491
     9  C    0.077260
    10  N   -0.639828
    11  H    0.134401
    12  H    0.131657
    13  H    0.133245
    14  H    0.136971
    15  H    0.137149
    16  H    0.133258
    17  H    0.155395
    18  H    0.150200
    19  H    0.153316
    20  H    0.155771
    21  H    0.147150
    22  H    0.147184
    23  H    0.160455
    24  H    0.404414
    25  H    0.404282
    26  H    0.402913
 Sum of Mulliken charges =   1.00000
 Mulliken charges with hydrogens summed into heavy atoms:
               1
     1  C    0.059390
     2  C    0.068574
     3  C    0.069606
     4  C    0.095366
     5  C    0.094311
     6  C   -0.018448
     7  C   -0.018803
     8  C    0.000964
     9  C    0.077260
    10  N    0.571780
 Electronic spatial extent (au):  <R**2>=           1176.5372
 Charge=              1.0000 electrons
 Dipole moment (field-independent basis, Debye):
    X=              9.6653    Y=             -0.0107    Z=              0.2208  Tot=              9.6678
 Quadrupole moment (field-independent basis, Debye-Ang):
   XX=            -30.3825   YY=            -56.2337   ZZ=            -56.7498
   XY=             -0.0189   XZ=              0.9332   YZ=             -0.0009
 Traceless Quadrupole moment (field-independent basis, Debye-Ang):
   XX=             17.4062   YY=             -8.4451   ZZ=             -8.9611
   XY=             -0.0189   XZ=              0.9332   YZ=             -0.0009
 Octapole moment (field-independent basis, Debye-Ang**2):
  XXX=             96.2480  YYY=              0.8657  ZZZ=              0.4444  XYY=             11.8746
  XXY=             -0.0673  XXZ=              3.9408  XZZ=             11.4447  YZZ=             -0.9232
  YYZ=             -1.6277  XYZ=              0.1254
 Hexadecapole moment (field-independent basis, Debye-Ang**3):
 XXXX=           -397.7540 YYYY=           -479.7651 ZZZZ=           -376.5131 XXXY=             -0.2506
 XXXZ=              0.5425 YYYX=              2.6406 YYYZ=              0.1214 ZZZX=              7.3481
 ZZZY=             -0.3582 XXYY=           -167.4361 XXZZ=           -153.3998 YYZZ=           -148.3181
 XXYZ=              0.7013 YYXZ=              1.3419 ZZXY=             -2.6691
 N-N= 6.060954797868D+02 E-N=-2.140512386768D+03  KE= 4.037227674989D+02
 Merz-Kollman atomic radii used.

 **********************************************************************

            Electrostatic Properties Using The SCF Density

 **********************************************************************

       Atomic Center    1 is at  -1.732056  0.000256 -0.866664
       Atomic Center    2 is at  -0.752146  1.237073  1.124548
       Atomic Center    3 is at  -0.751974 -1.237741  1.123882
       Atomic Center    4 is at   0.483906  1.246520 -0.879906
       Atomic Center    5 is at   0.484013 -1.246065 -0.880457
       Atomic Center    6 is at  -0.985925  1.292593 -0.403617
       Atomic Center    7 is at  -0.985819 -1.292450 -0.404110
       Atomic Center    8 is at   0.160958 -0.000337  1.239507
       Atomic Center    9 is at   0.968410 -0.000016 -0.123954
       Atomic Center   10 is at   2.499854  0.000048  0.072915
       Atomic Center   11 is at  -2.746446  0.000101 -0.455771
       Atomic Center   12 is at  -1.817163  0.000448 -1.959363
       Atomic Center   13 is at  -0.228865  2.134969  1.473083
       Atomic Center   14 is at  -1.680602  1.146285  1.691894
       Atomic Center   15 is at  -1.680345 -1.147437  1.691480
       Atomic Center   16 is at  -0.228760 -2.135833  1.472097
       Atomic Center   17 is at   0.569553  1.157662 -1.967275
       Atomic Center   18 is at   1.025167  2.150844 -0.570624
       Atomic Center   19 is at   1.025024 -2.150049 -0.571406
       Atomic Center   20 is at   0.569515 -1.156359 -1.968029
       Atomic Center   21 is at  -1.506945  2.198869 -0.719798
       Atomic Center   22 is at  -1.506782 -2.198543 -0.720793
       Atomic Center   23 is at   0.762228 -0.000524  2.156177
       Atomic Center   24 is at   2.955093 -0.690364 -0.533349
       Atomic Center   25 is at   2.749916 -0.226281  1.041212
       Atomic Center   26 is at   2.904232  0.916875 -0.145318
     946 points will be used for fitting atomic charges
 Fitting point charges to electrostatic potential
 Charges from ESP fit, RMS=   0.00083 RRMS=   0.00647:
 ESP charges:
               1
     1  C   -0.517512
     2  C   -0.450369
     3  C   -0.447834
     4  C   -0.482922
     5  C   -0.502857
     6  C    0.341674
     7  C    0.356609
     8  C    0.225251
     9  C    0.648685
    10  N   -0.878652
    11  H    0.134975
    12  H    0.128719
    13  H    0.094932
    14  H    0.142763
    15  H    0.139169
    16  H    0.095885
    17  H    0.143102
    18  H    0.129843
    19  H    0.136104
    20  H    0.144844
    21  H    0.024622
    22  H    0.020557
    23  H    0.026985
    24  H    0.463911
    25  H    0.426717
    26  H    0.454800
 Sum of ESP charges =   1.00000
 ESP charges with hydrogens summed into heavy atoms:
               1
     1  C   -0.253818
     2  C   -0.212675
     3  C   -0.212781
     4  C   -0.209977
     5  C   -0.221908
     6  C    0.366296
     7  C    0.377166
     8  C    0.252236
     9  C    0.648685
    10  N    0.466776
 Charge=   1.00000 Dipole=     9.6379    -0.0091     0.1984 Tot=     9.6400
 Writing Antechamber ESP formatted file "G9.esp"
 -----------------------------------------------------------------

              Electrostatic Properties (Atomic Units)

 -----------------------------------------------------------------
    Center     Electric         -------- Electric Field --------
               Potential          X             Y             Z
 -----------------------------------------------------------------
    1 Atom    -14.611144
    2 Atom    -14.605869
    3 Atom    -14.605671
    4 Atom    -14.570041
    5 Atom    -14.570157
    6 Atom    -14.593187
    7 Atom    -14.593180
    8 Atom    -14.564071
    9 Atom    -14.479247
   10 Atom    -18.001177
   11 Atom     -1.024990
   12 Atom     -1.019165
   13 Atom     -1.002844
   14 Atom     -1.015482
   15 Atom     -1.015297
   16 Atom     -1.002511
   17 Atom     -0.972378
   18 Atom     -0.956496
   19 Atom     -0.957403
   20 Atom     -0.971476
   21 Atom     -1.013410
   22 Atom     -1.013396
   23 Atom     -0.958556
   24 Atom     -0.745056
   25 Atom     -0.744328
   26 Atom     -0.745006
 -----------------------------------------------------------------

 Test job not archived.
 1\1\GINC-CPU189\SP\RHF\6-31G(d,p)\C9H16N1(1+)\FEBRERMA\05-Feb-2024\0\\
 # HF/6-31G** SCRF=(Solvent=Water) POP=MK iop(6/50=1) geom=allcheck gue
 ss=read\\G9\\1,1\C,0,9.7925877734,37.8604968466,28.8884357398\C,0,7.71
 80040046,38.8805959831,29.9421743837\C,0,8.2769354492,36.5182814428,30
 .423598366\C,0,9.8115492542,39.5564214492,30.7824575306\C,0,10.3743710
 757,37.1771064002,31.2672957334\C,0,9.1507030369,39.1746308559,29.4382
 491115\C,0,9.7343249217,36.7070427558,29.9410808061\C,0,8.0045251878,3
 7.8847673516,31.0842725511\C,0,9.4256433731,38.3310708815,31.624865923
 5\N,0,9.4340965139,38.6413261811,33.1373961495\H,0,9.2643624254,37.550
 6856972,27.9813450759\H,0,10.8365760728,38.0516808051,28.6149896443\H,
 0,7.2467708595,39.7895828009,30.3335805988\H,0,7.0703006129,38.4736798
 819,29.1630372216\H,0,7.5881500525,36.2842083136,29.6093638988\H,0,8.2
 111411742,35.7128464773,31.1642213783\H,0,10.8926172942,39.7003832864,
 30.692069246\H,0,9.379099328,40.4831877883,31.1830957632\H,0,10.350027
 1068,36.377631617,32.0193864157\H,0,11.4153352603,37.4915322824,31.141
 9995571\H,0,9.1840055975,39.982210396,28.7037596698\H,0,10.1769515987,
 35.7846251463,29.5590814687\H,0,7.1974246599,37.8447960611,31.82508372
 73\H,0,10.2342467654,38.2024323636,33.604942963\H,0,8.5826252815,38.29
 57109043,33.5922603246\H,0,9.4904253198,39.6504620309,33.3111527518\\V
 ersion=ES64L-G16RevA.03\State=1-A\HF=-404.4840613\RMSD=4.647e-09\Dipol
 e=0.4100874,0.843575,3.6861334\Quadrupole=-6.4865045,-5.3665093,11.853
 0138,0.3251064,1.8424359,4.1155014\PG=C01 [X(C9H16N1)]\\@


 VIRTUE IS LEARNED AT YOUR MOTHER'S KNEE,
 VICES ARE PICKED UP AT SOME OTHER JOINT.
 Job cpu time:       0 days  0 hours  2 minutes 17.3 seconds.
 Elapsed time:       0 days  0 hours  0 minutes 18.0 seconds.
 File lengths (MBytes):  RWF=     77 Int=      0 D2E=      0 Chk=      7 Scr=      1
 Normal termination of Gaussian 16 at Mon Feb  5 16:01:26 2024.
