 Entering Gaussian System, Link 0=g16
 Initial command:
 /opt/ebsofts/Gaussian/g16/l1.exe "/scratch/Gau-2048315.inp" -scrdir="/scratch/"
 Entering Link 1 = /opt/ebsofts/Gaussian/g16/l1.exe PID=   2048321.
  
 Copyright (c) 1988,1990,1992,1993,1995,1998,2003,2009,2016,
            Gaussian, Inc.  All Rights Reserved.
  
 This is part of the Gaussian(R) 16 program.  It is based on
 the Gaussian(R) 09 system (copyright 2009, Gaussian, Inc.),
 the Gaussian(R) 03 system (copyright 2003, Gaussian, Inc.),
 the Gaussian(R) 98 system (copyright 1998, Gaussian, Inc.),
 the Gaussian(R) 94 system (copyright 1995, Gaussian, Inc.),
 the Gaussian 92(TM) system (copyright 1992, Gaussian, Inc.),
 the Gaussian 90(TM) system (copyright 1990, Gaussian, Inc.),
 the Gaussian 88(TM) system (copyright 1988, Gaussian, Inc.),
 the Gaussian 86(TM) system (copyright 1986, Carnegie Mellon
 University), and the Gaussian 82(TM) system (copyright 1983,
 Carnegie Mellon University). Gaussian is a federally registered
 trademark of Gaussian, Inc.
  
 This software contains proprietary and confidential information,
 including trade secrets, belonging to Gaussian, Inc.
  
 This software is provided under written license and may be
 used, copied, transmitted, or stored only in accord with that
 written license.
  
 The following legend is applicable only to US Government
 contracts under FAR:
  
                    RESTRICTED RIGHTS LEGEND
  
 Use, reproduction and disclosure by the US Government is
 subject to restrictions as set forth in subparagraphs (a)
 and (c) of the Commercial Computer Software - Restricted
 Rights clause in FAR 52.227-19.
  
 Gaussian, Inc.
 340 Quinnipiac St., Bldg. 40, Wallingford CT 06492
  
  
 ---------------------------------------------------------------
 Warning -- This program may not be used in any manner that
 competes with the business of Gaussian, Inc. or will provide
 assistance to any competitor of Gaussian, Inc.  The licensee
 of this program is prohibited from giving any competitor of
 Gaussian, Inc. access to this program.  By using this program,
 the user acknowledges that Gaussian, Inc. is engaged in the
 business of creating and licensing software in the field of
 computational chemistry and represents and warrants to the
 licensee that it is not a competitor of Gaussian, Inc. and that
 it will not use this program in any manner prohibited above.
 ---------------------------------------------------------------
  

 Cite this work as:
 Gaussian 16, Revision A.03,
 M. J. Frisch, G. W. Trucks, H. B. Schlegel, G. E. Scuseria, 
 M. A. Robb, J. R. Cheeseman, G. Scalmani, V. Barone, 
 G. A. Petersson, H. Nakatsuji, X. Li, M. Caricato, A. V. Marenich, 
 J. Bloino, B. G. Janesko, R. Gomperts, B. Mennucci, H. P. Hratchian, 
 J. V. Ortiz, A. F. Izmaylov, J. L. Sonnenberg, D. Williams-Young, 
 F. Ding, F. Lipparini, F. Egidi, J. Goings, B. Peng, A. Petrone, 
 T. Henderson, D. Ranasinghe, V. G. Zakrzewski, J. Gao, N. Rega, 
 G. Zheng, W. Liang, M. Hada, M. Ehara, K. Toyota, R. Fukuda, 
 J. Hasegawa, M. Ishida, T. Nakajima, Y. Honda, O. Kitao, H. Nakai, 
 T. Vreven, K. Throssell, J. A. Montgomery, Jr., J. E. Peralta, 
 F. Ogliaro, M. J. Bearpark, J. J. Heyd, E. N. Brothers, K. N. Kudin, 
 V. N. Staroverov, T. A. Keith, R. Kobayashi, J. Normand, 
 K. Raghavachari, A. P. Rendell, J. C. Burant, S. S. Iyengar, 
 J. Tomasi, M. Cossi, J. M. Millam, M. Klene, C. Adamo, R. Cammi, 
 J. W. Ochterski, R. L. Martin, K. Morokuma, O. Farkas, 
 J. B. Foresman, and D. J. Fox, Gaussian, Inc., Wallingford CT, 2016.
 
 ******************************************
 Gaussian 16:  ES64L-G16RevA.03 25-Dec-2016
                 5-Feb-2024 
 ******************************************
 %Chk=G8.chk
 %nprocshared=8
 Will use up to    8 processors via shared memory.
 %mem=1GB
 --------------------------------
 # B3LYP/6-31G** opt=Modredundant
 --------------------------------
 1/18=120,19=15,26=3,38=1/1,3;
 2/9=110,12=2,17=6,18=5,40=1/2;
 3/5=1,6=6,7=101,11=2,25=1,30=1,71=1,74=-5/1,2,3;
 4//1;
 5/5=2,38=5/2;
 6/7=2,8=2,9=2,10=2,28=1/1;
 7//1,2,3,16;
 1/18=20,19=15,26=3/3(2);
 2/9=110/2;
 99//99;
 2/9=110/2;
 3/5=1,6=6,7=101,11=2,25=1,30=1,71=1,74=-5/1,2,3;
 4/5=5,16=3,69=1/1;
 5/5=2,38=5/2;
 7//1,2,3,16;
 1/18=20,19=15,26=3/3(-5);
 2/9=110/2;
 6/7=2,8=2,9=2,10=2,19=2,28=1/1;
 99/9=1/99;
 --
 G8
 --
 Symbolic Z-matrix:
 Charge =  1 Multiplicity = 1
 C                     7.5951    38.8097   27.5577 
 C                     8.2625    40.0791   27.0218 
 C                     7.5006    38.7668   29.0851 
 C                     9.6838    40.4013   27.5173 
 C                     7.2118    37.354    29.6018 
 C                     10.7728   39.3649   27.2027 
 C                     7.541     37.1562   31.09 
 C                     10.9069   38.1787   28.1679 
 C                     8.9839    37.487    31.508 
 C                     11.3464   38.5621   29.5876 
 C                     10.0594   36.6436   30.804 
 C                     11.3997   37.3573   30.5458 
 N                     11.958    37.8261   31.849 
 H                     6.5785    38.756    27.1459 
 H                     8.1179    37.9306   27.1723 
 H                     8.2781    40.0306   25.9161 
 H                     7.6149    40.9437   27.2627 
 H                     8.3986    39.1495   29.5423 
 H                     6.6826    39.4145   29.3947 
 H                     9.9932    41.3617   27.0569 
 H                     9.6418    40.635    28.5958 
 H                     6.1694    37.1177   29.4313 
 H                     7.8121    36.6579   29.0273 
 H                     10.6745   38.9819   26.1691 
 H                     11.747    39.8965   27.1812 
 H                     6.8991    37.8484   31.6473 
 H                     7.2554    36.1618   31.4327 
 H                     9.9466    37.6621   28.2156 
 H                     11.6295   37.4692   27.76 
 H                     9.1795    38.5315   31.299 
 H                     9.0693    37.3433   32.5775 
 H                     12.3236   39.0432   29.5397 
 H                     10.6561   39.3071   29.9783 
 H                     10.2257   35.7383   31.4037 
 H                     9.6479    36.278    29.8501 
 H                     12.1391   36.629    30.1902 
 H                     11.6578   38.7844   32.0465 
 H                     12.9813   37.8078   31.8302 
 H                     11.6401   37.2258   32.6147 
 
 The following ModRedundant input section has been read:
 D    *       *       *       *    F                                           
 

 GradGradGradGradGradGradGradGradGradGradGradGradGradGradGradGradGradGrad
 Berny optimization.
 Initialization pass.
                           ----------------------------
                           !    Initial Parameters    !
                           ! (Angstroms and Degrees)  !
 --------------------------                            --------------------------
 ! Name  Definition              Value          Derivative Info.                !
 --------------------------------------------------------------------------------
 ! R1    R(1,2)                  1.531          estimate D2E/DX2                !
 ! R2    R(1,3)                  1.5309         estimate D2E/DX2                !
 ! R3    R(1,14)                 1.0982         estimate D2E/DX2                !
 ! R4    R(1,15)                 1.093          estimate D2E/DX2                !
 ! R5    R(2,4)                  1.5393         estimate D2E/DX2                !
 ! R6    R(2,16)                 1.1069         estimate D2E/DX2                !
 ! R7    R(2,17)                 1.1068         estimate D2E/DX2                !
 ! R8    R(3,5)                  1.5318         estimate D2E/DX2                !
 ! R9    R(3,18)                 1.0779         estimate D2E/DX2                !
 ! R10   R(3,19)                 1.0883         estimate D2E/DX2                !
 ! R11   R(4,6)                  1.5359         estimate D2E/DX2                !
 ! R12   R(4,20)                 1.1091         estimate D2E/DX2                !
 ! R13   R(4,21)                 1.1043         estimate D2E/DX2                !
 ! R14   R(5,7)                  1.537          estimate D2E/DX2                !
 ! R15   R(5,22)                 1.0824         estimate D2E/DX2                !
 ! R16   R(5,23)                 1.084          estimate D2E/DX2                !
 ! R17   R(6,8)                  1.5351         estimate D2E/DX2                !
 ! R18   R(6,24)                 1.1067         estimate D2E/DX2                !
 ! R19   R(6,25)                 1.11           estimate D2E/DX2                !
 ! R20   R(7,9)                  1.5382         estimate D2E/DX2                !
 ! R21   R(7,26)                 1.0962         estimate D2E/DX2                !
 ! R22   R(7,27)                 1.0899         estimate D2E/DX2                !
 ! R23   R(8,10)                 1.5348         estimate D2E/DX2                !
 ! R24   R(8,28)                 1.0915         estimate D2E/DX2                !
 ! R25   R(8,29)                 1.0918         estimate D2E/DX2                !
 ! R26   R(9,11)                 1.5374         estimate D2E/DX2                !
 ! R27   R(9,30)                 1.083          estimate D2E/DX2                !
 ! R28   R(9,31)                 1.0825         estimate D2E/DX2                !
 ! R29   R(10,12)                1.5403         estimate D2E/DX2                !
 ! R30   R(10,32)                1.0903         estimate D2E/DX2                !
 ! R31   R(10,33)                1.0882         estimate D2E/DX2                !
 ! R32   R(11,12)                1.5403         estimate D2E/DX2                !
 ! R33   R(11,34)                1.0986         estimate D2E/DX2                !
 ! R34   R(11,35)                1.1013         estimate D2E/DX2                !
 ! R35   R(12,13)                1.4933         estimate D2E/DX2                !
 ! R36   R(12,36)                1.0971         estimate D2E/DX2                !
 ! R37   R(13,37)                1.0235         estimate D2E/DX2                !
 ! R38   R(13,38)                1.0236         estimate D2E/DX2                !
 ! R39   R(13,39)                1.0236         estimate D2E/DX2                !
 ! A1    A(2,1,3)              113.5386         estimate D2E/DX2                !
 ! A2    A(2,1,14)             108.2301         estimate D2E/DX2                !
 ! A3    A(2,1,15)             109.5685         estimate D2E/DX2                !
 ! A4    A(3,1,14)             108.398          estimate D2E/DX2                !
 ! A5    A(3,1,15)             111.0252         estimate D2E/DX2                !
 ! A6    A(14,1,15)            105.738          estimate D2E/DX2                !
 ! A7    A(1,2,4)              117.6054         estimate D2E/DX2                !
 ! A8    A(1,2,16)             108.6311         estimate D2E/DX2                !
 ! A9    A(1,2,17)             108.4482         estimate D2E/DX2                !
 ! A10   A(4,2,16)             108.525          estimate D2E/DX2                !
 ! A11   A(4,2,17)             107.86           estimate D2E/DX2                !
 ! A12   A(16,2,17)            105.0644         estimate D2E/DX2                !
 ! A13   A(1,3,5)              111.9641         estimate D2E/DX2                !
 ! A14   A(1,3,18)             111.211          estimate D2E/DX2                !
 ! A15   A(1,3,19)             108.2722         estimate D2E/DX2                !
 ! A16   A(5,3,18)             109.9655         estimate D2E/DX2                !
 ! A17   A(5,3,19)             108.1336         estimate D2E/DX2                !
 ! A18   A(18,3,19)            107.1097         estimate D2E/DX2                !
 ! A19   A(2,4,6)              116.5834         estimate D2E/DX2                !
 ! A20   A(2,4,20)             107.7709         estimate D2E/DX2                !
 ! A21   A(2,4,21)             108.8778         estimate D2E/DX2                !
 ! A22   A(6,4,20)             107.5473         estimate D2E/DX2                !
 ! A23   A(6,4,21)             111.7034         estimate D2E/DX2                !
 ! A24   A(20,4,21)            103.4601         estimate D2E/DX2                !
 ! A25   A(3,5,7)              113.8869         estimate D2E/DX2                !
 ! A26   A(3,5,22)             109.2566         estimate D2E/DX2                !
 ! A27   A(3,5,23)             108.0052         estimate D2E/DX2                !
 ! A28   A(7,5,22)             109.3122         estimate D2E/DX2                !
 ! A29   A(7,5,23)             108.1753         estimate D2E/DX2                !
 ! A30   A(22,5,23)            108.0391         estimate D2E/DX2                !
 ! A31   A(4,6,8)              117.0361         estimate D2E/DX2                !
 ! A32   A(4,6,24)             111.2146         estimate D2E/DX2                !
 ! A33   A(4,6,25)             107.6427         estimate D2E/DX2                !
 ! A34   A(8,6,24)             109.1213         estimate D2E/DX2                !
 ! A35   A(8,6,25)             107.7924         estimate D2E/DX2                !
 ! A36   A(24,6,25)            103.039          estimate D2E/DX2                !
 ! A37   A(5,7,9)              115.872          estimate D2E/DX2                !
 ! A38   A(5,7,26)             106.5926         estimate D2E/DX2                !
 ! A39   A(5,7,27)             111.4541         estimate D2E/DX2                !
 ! A40   A(9,7,26)             105.9812         estimate D2E/DX2                !
 ! A41   A(9,7,27)             110.8901         estimate D2E/DX2                !
 ! A42   A(26,7,27)            105.2374         estimate D2E/DX2                !
 ! A43   A(6,8,10)             114.4292         estimate D2E/DX2                !
 ! A44   A(6,8,28)             108.4417         estimate D2E/DX2                !
 ! A45   A(6,8,29)             108.9694         estimate D2E/DX2                !
 ! A46   A(10,8,28)            109.2532         estimate D2E/DX2                !
 ! A47   A(10,8,29)            108.5664         estimate D2E/DX2                !
 ! A48   A(28,8,29)            106.922          estimate D2E/DX2                !
 ! A49   A(7,9,11)             114.4434         estimate D2E/DX2                !
 ! A50   A(7,9,30)             108.9281         estimate D2E/DX2                !
 ! A51   A(7,9,31)             108.2967         estimate D2E/DX2                !
 ! A52   A(11,9,30)            108.3225         estimate D2E/DX2                !
 ! A53   A(11,9,31)            108.9295         estimate D2E/DX2                !
 ! A54   A(30,9,31)            107.7247         estimate D2E/DX2                !
 ! A55   A(8,10,12)            112.9508         estimate D2E/DX2                !
 ! A56   A(8,10,32)            109.041          estimate D2E/DX2                !
 ! A57   A(8,10,33)            108.7519         estimate D2E/DX2                !
 ! A58   A(12,10,32)           109.9666         estimate D2E/DX2                !
 ! A59   A(12,10,33)           109.5177         estimate D2E/DX2                !
 ! A60   A(32,10,33)           106.3939         estimate D2E/DX2                !
 ! A61   A(9,11,12)            115.55           estimate D2E/DX2                !
 ! A62   A(9,11,34)            107.9387         estimate D2E/DX2                !
 ! A63   A(9,11,35)            108.5023         estimate D2E/DX2                !
 ! A64   A(12,11,34)           109.9759         estimate D2E/DX2                !
 ! A65   A(12,11,35)           109.4968         estimate D2E/DX2                !
 ! A66   A(34,11,35)           104.8219         estimate D2E/DX2                !
 ! A67   A(10,12,11)           115.8874         estimate D2E/DX2                !
 ! A68   A(10,12,13)           108.0764         estimate D2E/DX2                !
 ! A69   A(10,12,36)           109.9341         estimate D2E/DX2                !
 ! A70   A(11,12,13)           108.936          estimate D2E/DX2                !
 ! A71   A(11,12,36)           109.4634         estimate D2E/DX2                !
 ! A72   A(13,12,36)           103.8456         estimate D2E/DX2                !
 ! A73   A(12,13,37)           110.6528         estimate D2E/DX2                !
 ! A74   A(12,13,38)           110.6169         estimate D2E/DX2                !
 ! A75   A(12,13,39)           110.6473         estimate D2E/DX2                !
 ! A76   A(37,13,38)           108.2706         estimate D2E/DX2                !
 ! A77   A(37,13,39)           108.2811         estimate D2E/DX2                !
 ! A78   A(38,13,39)           108.2842         estimate D2E/DX2                !
 ! D1    D(3,1,2,4)             56.9259         Frozen                          !
 ! D2    D(3,1,2,16)          -179.3871         Frozen                          !
 ! D3    D(3,1,2,17)           -65.7086         Frozen                          !
 ! D4    D(14,1,2,4)           177.319          Frozen                          !
 ! D5    D(14,1,2,16)          -58.994          Frozen                          !
 ! D6    D(14,1,2,17)           54.6845         Frozen                          !
 ! D7    D(15,1,2,4)           -67.8366         Frozen                          !
 ! D8    D(15,1,2,16)           55.8503         Frozen                          !
 ! D9    D(15,1,2,17)          169.5289         Frozen                          !
 ! D10   D(2,1,3,5)           -163.5877         Frozen                          !
 ! D11   D(2,1,3,18)           -40.1212         Frozen                          !
 ! D12   D(2,1,3,19)            77.2968         Frozen                          !
 ! D13   D(14,1,3,5)            76.1141         Frozen                          !
 ! D14   D(14,1,3,18)         -160.4194         Frozen                          !
 ! D15   D(14,1,3,19)          -43.0014         Frozen                          !
 ! D16   D(15,1,3,5)           -39.613          Frozen                          !
 ! D17   D(15,1,3,18)           83.8535         Frozen                          !
 ! D18   D(15,1,3,19)         -158.7285         Frozen                          !
 ! D19   D(1,2,4,6)             60.846          Frozen                          !
 ! D20   D(1,2,4,20)          -178.1962         Frozen                          !
 ! D21   D(1,2,4,21)           -66.6087         Frozen                          !
 ! D22   D(16,2,4,6)           -62.8944         Frozen                          !
 ! D23   D(16,2,4,20)           58.0634         Frozen                          !
 ! D24   D(16,2,4,21)          169.6509         Frozen                          !
 ! D25   D(17,2,4,6)          -176.2201         Frozen                          !
 ! D26   D(17,2,4,20)          -55.2622         Frozen                          !
 ! D27   D(17,2,4,21)           56.3252         Frozen                          !
 ! D28   D(1,3,5,7)            161.675          Frozen                          !
 ! D29   D(1,3,5,22)           -75.788          Frozen                          !
 ! D30   D(1,3,5,23)            41.4994         Frozen                          !
 ! D31   D(18,3,5,7)            37.5101         Frozen                          !
 ! D32   D(18,3,5,22)          160.0471         Frozen                          !
 ! D33   D(18,3,5,23)          -82.6656         Frozen                          !
 ! D34   D(19,3,5,7)           -79.1278         Frozen                          !
 ! D35   D(19,3,5,22)           43.4092         Frozen                          !
 ! D36   D(19,3,5,23)          160.6966         Frozen                          !
 ! D37   D(2,4,6,8)            -84.0841         Frozen                          !
 ! D38   D(2,4,6,24)            42.2563         Frozen                          !
 ! D39   D(2,4,6,25)           154.4298         Frozen                          !
 ! D40   D(20,4,6,8)           154.8397         Frozen                          !
 ! D41   D(20,4,6,24)          -78.82           Frozen                          !
 ! D42   D(20,4,6,25)           33.3536         Frozen                          !
 ! D43   D(21,4,6,8)            41.9716         Frozen                          !
 ! D44   D(21,4,6,24)          168.312          Frozen                          !
 ! D45   D(21,4,6,25)          -79.5145         Frozen                          !
 ! D46   D(3,5,7,9)            -55.9843         Frozen                          !
 ! D47   D(3,5,7,26)            61.648          Frozen                          !
 ! D48   D(3,5,7,27)           175.963          Frozen                          !
 ! D49   D(22,5,7,9)          -178.4908         Frozen                          !
 ! D50   D(22,5,7,26)          -60.8586         Frozen                          !
 ! D51   D(22,5,7,27)           53.4564         Frozen                          !
 ! D52   D(23,5,7,9)            64.0957         Frozen                          !
 ! D53   D(23,5,7,26)         -178.2721         Frozen                          !
 ! D54   D(23,5,7,27)          -63.9571         Frozen                          !
 ! D55   D(4,6,8,10)           -64.9806         Frozen                          !
 ! D56   D(4,6,8,28)            57.2442         Frozen                          !
 ! D57   D(4,6,8,29)           173.2886         Frozen                          !
 ! D58   D(24,6,8,10)          167.6532         Frozen                          !
 ! D59   D(24,6,8,28)          -70.122          Frozen                          !
 ! D60   D(24,6,8,29)           45.9224         Frozen                          !
 ! D61   D(25,6,8,10)           56.4273         Frozen                          !
 ! D62   D(25,6,8,28)          178.6522         Frozen                          !
 ! D63   D(25,6,8,29)          -65.3035         Frozen                          !
 ! D64   D(5,7,9,11)           -60.4875         Frozen                          !
 ! D65   D(5,7,9,30)            60.9068         Frozen                          !
 ! D66   D(5,7,9,31)           177.803          Frozen                          !
 ! D67   D(26,7,9,11)         -178.4585         Frozen                          !
 ! D68   D(26,7,9,30)          -57.0642         Frozen                          !
 ! D69   D(26,7,9,31)           59.832          Frozen                          !
 ! D70   D(27,7,9,11)           67.8429         Frozen                          !
 ! D71   D(27,7,9,30)         -170.7627         Frozen                          !
 ! D72   D(27,7,9,31)          -53.8665         Frozen                          !
 ! D73   D(6,8,10,12)          177.0308         Frozen                          !
 ! D74   D(6,8,10,32)          -60.3917         Frozen                          !
 ! D75   D(6,8,10,33)           55.2333         Frozen                          !
 ! D76   D(28,8,10,12)          55.2492         Frozen                          !
 ! D77   D(28,8,10,32)         177.8267         Frozen                          !
 ! D78   D(28,8,10,33)         -66.5482         Frozen                          !
 ! D79   D(29,8,10,12)         -61.0179         Frozen                          !
 ! D80   D(29,8,10,32)          61.5596         Frozen                          !
 ! D81   D(29,8,10,33)         177.1846         Frozen                          !
 ! D82   D(7,9,11,12)          147.3911         Frozen                          !
 ! D83   D(7,9,11,34)          -89.0521         Frozen                          !
 ! D84   D(7,9,11,35)           24.0194         Frozen                          !
 ! D85   D(30,9,11,12)          25.6644         Frozen                          !
 ! D86   D(30,9,11,34)         149.2213         Frozen                          !
 ! D87   D(30,9,11,35)         -97.7073         Frozen                          !
 ! D88   D(31,9,11,12)         -91.2468         Frozen                          !
 ! D89   D(31,9,11,34)          32.3101         Frozen                          !
 ! D90   D(31,9,11,35)         145.3815         Frozen                          !
 ! D91   D(8,10,12,11)         -62.6884         Frozen                          !
 ! D92   D(8,10,12,13)         174.7752         Frozen                          !
 ! D93   D(8,10,12,36)          62.0603         Frozen                          !
 ! D94   D(32,10,12,11)        175.2523         Frozen                          !
 ! D95   D(32,10,12,13)         52.7159         Frozen                          !
 ! D96   D(32,10,12,36)        -59.999          Frozen                          !
 ! D97   D(33,10,12,11)         58.6768         Frozen                          !
 ! D98   D(33,10,12,13)        -63.8595         Frozen                          !
 ! D99   D(33,10,12,36)       -176.5745         Frozen                          !
 ! D100  D(9,11,12,10)         -63.9267         Frozen                          !
 ! D101  D(9,11,12,13)          58.1547         Frozen                          !
 ! D102  D(9,11,12,36)         171.0828         Frozen                          !
 ! D103  D(34,11,12,10)        173.5933         Frozen                          !
 ! D104  D(34,11,12,13)        -64.3253         Frozen                          !
 ! D105  D(34,11,12,36)         48.6028         Frozen                          !
 ! D106  D(35,11,12,10)         58.9199         Frozen                          !
 ! D107  D(35,11,12,13)       -178.9987         Frozen                          !
 ! D108  D(35,11,12,36)        -66.0706         Frozen                          !
 ! D109  D(10,12,13,37)         34.633          Frozen                          !
 ! D110  D(10,12,13,38)        -85.3516         Frozen                          !
 ! D111  D(10,12,13,39)        154.6505         Frozen                          !
 ! D112  D(11,12,13,37)        -92.0601         Frozen                          !
 ! D113  D(11,12,13,38)        147.9554         Frozen                          !
 ! D114  D(11,12,13,39)         27.9574         Frozen                          !
 ! D115  D(36,12,13,37)        151.365          Frozen                          !
 ! D116  D(36,12,13,38)         31.3805         Frozen                          !
 ! D117  D(36,12,13,39)        -88.6174         Frozen                          !
 --------------------------------------------------------------------------------
 Trust Radius=3.00D-01 FncErr=1.00D-07 GrdErr=1.00D-06 EigMax=2.50D+02 EigMin=1.00D-04
 Number of steps in this run=    234 maximum allowed number of steps=    234.
 GradGradGradGradGradGradGradGradGradGradGradGradGradGradGradGradGradGrad

                          Input orientation:                          
 ---------------------------------------------------------------------
 Center     Atomic      Atomic             Coordinates (Angstroms)
 Number     Number       Type             X           Y           Z
 ---------------------------------------------------------------------
      1          6           0        7.595100   38.809700   27.557699
      2          6           0        8.262500   40.079102   27.021799
      3          6           0        7.500600   38.766800   29.085100
      4          6           0        9.683800   40.401299   27.517300
      5          6           0        7.211800   37.354000   29.601801
      6          6           0       10.772800   39.364899   27.202700
      7          6           0        7.541000   37.156200   31.090000
      8          6           0       10.906900   38.178699   28.167900
      9          6           0        8.983900   37.487000   31.507999
     10          6           0       11.346400   38.562099   29.587601
     11          6           0       10.059400   36.643600   30.804001
     12          6           0       11.399700   37.357300   30.545799
     13          7           0       11.958000   37.826099   31.849001
     14          1           0        6.578500   38.756001   27.145901
     15          1           0        8.117900   37.930599   27.172300
     16          1           0        8.278100   40.030602   25.916100
     17          1           0        7.614900   40.943699   27.262699
     18          1           0        8.398600   39.149502   29.542299
     19          1           0        6.682600   39.414501   29.394699
     20          1           0        9.993200   41.361698   27.056900
     21          1           0        9.641800   40.634998   28.595800
     22          1           0        6.169400   37.117699   29.431299
     23          1           0        7.812100   36.657902   29.027300
     24          1           0       10.674500   38.981899   26.169100
     25          1           0       11.747000   39.896500   27.181200
     26          1           0        6.899100   37.848400   31.647301
     27          1           0        7.255400   36.161800   31.432699
     28          1           0        9.946600   37.662102   28.215599
     29          1           0       11.629500   37.469200   27.760000
     30          1           0        9.179500   38.531502   31.299000
     31          1           0        9.069300   37.343300   32.577499
     32          1           0       12.323600   39.043201   29.539700
     33          1           0       10.656100   39.307098   29.978300
     34          1           0       10.225700   35.738300   31.403700
     35          1           0        9.647900   36.278000   29.850100
     36          1           0       12.139100   36.629002   30.190201
     37          1           0       11.657800   38.784401   32.046501
     38          1           0       12.981300   37.807800   31.830200
     39          1           0       11.640100   37.225800   32.614700
 ---------------------------------------------------------------------
                    Distance matrix (angstroms):
                    1          2          3          4          5
     1  C    0.000000
     2  C    1.531010   0.000000
     3  C    1.530923   2.561218   0.000000
     4  C    2.626307   1.539294   3.145782   0.000000
     5  C    2.538569   3.896994   1.531793   4.443193   0.000000
     6  C    3.245312   2.616184   3.822100   1.535910   4.741321
     7  C    3.900531   5.061045   2.572020   5.280762   1.536956
     8  C    3.426153   3.452236   3.576311   2.619008   4.048452
     9  C    4.391261   5.231195   3.115848   4.990859   2.606073
    10  C    4.272477   4.288948   3.883888   3.230022   4.307508
    11  C    4.615543   5.416325   3.743001   5.006374   3.171558
    12  C    5.051058   5.446908   4.395829   4.624073   4.292977
    13  N    6.198197   6.483411   5.328460   5.528768   5.272495
    14  H    1.098152   2.145193   2.147295   3.533813   2.897951
    15  H    1.093010   2.158616   2.176946   2.945408   2.656305
    16  H    2.156835   1.106872   3.499180   2.162695   4.678203
    17  H    2.154384   1.106773   2.841320   2.153919   4.303467
    18  H    2.167883   2.689907   1.077913   2.705431   2.153105
    19  H    2.138460   2.927189   1.088344   3.674996   2.137430
    20  H    3.537567   2.154439   4.130393   1.109082   5.502213
    21  H    2.932294   2.165403   2.883456   1.104329   4.204983
    22  H    2.899287   4.353925   2.147436   5.176527   1.082362
    23  H    2.614775   3.991178   2.132563   4.449313   1.083958
    24  H    3.382390   2.783648   4.315433   2.194043   5.140407
    25  H    4.308266   3.492920   4.788838   2.150484   5.735125
    26  H    4.258328   5.313206   2.787496   5.597210   2.127506
    27  H    4.705571   5.984609   3.515305   6.261056   2.185276
    28  H    2.698030   3.178559   2.821224   2.838994   3.081495
    29  H    4.256084   4.323565   4.526309   3.527302   4.787648
    30  H    4.072475   4.640087   2.788445   4.248731   2.852865
    31  H    5.433414   6.245105   4.084608   5.944290   3.507877
    32  H    5.132403   4.889320   4.852256   3.592085   5.384028
    33  H    3.934010   3.881522   3.323689   2.863418   3.977379
    34  H    5.580795   6.472849   4.687631   6.094368   3.865349
    35  H    3.984795   4.936294   3.374944   4.737598   2.674698
    36  H    5.686251   6.080295   5.225621   5.234799   5.014990
    37  H    6.054380   6.200963   5.104167   5.198528   5.271577
    38  H    6.947605   7.109614   6.204299   6.016714   6.201518
    39  H    6.666635   7.129520   5.654044   6.316201   5.357596
                    6          7          8          9         10
     6  C    0.000000
     7  C    5.516700   0.000000
     8  C    1.535143   4.573123   0.000000
     9  C    5.026158   1.538217   3.915691   0.000000
    10  C    2.580941   4.326063   1.534831   3.228804   0.000000
    11  C    4.569877   2.585903   3.166041   1.537412   2.610869
    12  C    3.949654   3.902071   2.563582   2.603601   1.540300
    13  N    5.035943   4.531527   3.844430   3.012730   2.455541
    14  H    4.238648   4.363678   4.484730   5.140449   5.360258
    15  H    3.017720   4.034957   2.971749   4.443537   4.081138
    16  H    2.884793   5.964457   3.925651   6.183640   5.005086
    17  H    3.531082   5.385057   4.393390   5.643182   5.000128
    18  H    3.340201   2.665353   3.020430   2.640164   3.006097
    19  H    4.640803   2.951410   4.569130   3.671141   4.744980
    20  H    2.148544   6.321819   3.492943   5.987007   4.009159
    21  H    2.198418   4.768273   2.795886   4.338620   2.861161
    22  H    5.586399   2.152686   5.016553   3.517169   5.376993
    23  H    4.407124   2.139282   3.553756   2.866075   4.053539
    24  H    1.106653   6.112876   2.166643   5.796266   3.509107
    25  H    1.110012   6.362264   2.151787   5.671120   2.780624
    26  H    6.087676   1.096249   5.317686   2.120473   4.952798
    27  H    6.365912   1.089881   5.297192   2.179343   5.089411
    28  H    2.146646   3.782199   1.091478   3.434727   2.156809
    29  H    2.153646   5.282301   1.091752   4.587702   2.148185
    30  H    4.473570   2.149376   3.593351   1.083016   2.761391
    31  H    5.989761   2.140878   4.849663   1.082485   3.950968
    32  H    2.823126   5.370053   2.153192   4.177267   1.090263
    33  H    2.778653   3.945388   2.147960   2.906714   1.088202
    34  H    5.576732   3.052288   4.109742   2.147300   3.539495
    35  H    4.219369   2.597617   2.833290   2.156666   2.858481
    36  H    4.275169   4.714881   2.830120   3.525342   2.174480
    37  H    4.958085   4.529236   3.996783   3.020426   2.488489
    38  H    5.358711   5.528955   4.225298   4.023174   2.875955
    39  H    5.883681   4.374034   4.606477   2.889362   3.321940
                   11         12         13         14         15
    11  C    0.000000
    12  C    1.540273   0.000000
    13  N    2.468808   1.493254   0.000000
    14  H    5.473628   6.062973   7.205754   0.000000
    15  H    4.314515   4.741242   6.052175   1.746922   0.000000
    16  H    6.207768   6.190722   7.321258   2.454722   2.452288
    17  H    6.083359   6.161632   7.043871   2.423590   3.056134
    18  H    3.260321   3.636702   4.443152   3.034853   2.679816
    19  H    4.589859   5.273342   6.031290   2.345539   3.033333
    20  H    6.025413   5.494166   6.270975   4.296249   3.911842
    21  H    4.580589   4.199525   4.882419   3.875131   3.415025
    22  H    4.152250   5.353089   6.313082   2.841556   3.092012
    23  H    2.864826   3.958013   5.149288   3.076272   2.270308
    24  H    5.227647   4.724482   5.936710   4.216917   2.940722
    25  H    5.153061   4.229501   5.110719   5.292955   4.127374
    26  H    3.485713   4.659387   5.062968   4.603165   4.638735
    27  H    2.913728   4.403525   5.005761   5.056156   4.692926
    28  H    2.783863   2.763012   4.156228   3.699320   2.122430
    29  H    3.523176   2.797500   4.117671   5.248388   3.590211
    30  H    2.140893   2.622089   2.918931   4.905490   4.303223
    31  H    2.148295   3.091725   3.018011   6.140201   5.519625
    32  H    3.533149   2.169813   2.635882   6.230484   4.952815
    33  H    2.851676   2.162570   2.718055   4.995299   4.026269
    34  H    1.098573   2.176105   2.749193   6.366902   5.210925
    35  H    1.101328   2.172024   3.424730   4.782719   3.498942
    36  H    2.168436   1.097078   2.053645   6.686715   5.193451
    37  H    2.946475   2.086945   1.023459   7.058043   6.084218
    38  H    3.308466   2.086647   1.023636   7.989843   6.735263
    39  H    2.473095   2.086968   1.023579   7.607172   6.520917
                   16         17         18         19         20
    16  H    0.000000
    17  H    1.756960   0.000000
    18  H    3.733655   3.004980   0.000000
    19  H    3.876319   2.784431   1.742603   0.000000
    20  H    2.452511   2.423507   3.689684   4.496327   0.000000
    21  H    3.066882   2.445563   2.155946   3.299199   1.737754
    22  H    5.028742   4.629317   3.018257   2.353723   6.186335
    23  H    4.612139   4.639047   2.610992   3.001598   5.546654
    24  H    2.628026   3.795493   4.072626   5.150427   2.629791
    25  H    3.694825   4.263510   4.164682   5.547977   2.288683
    26  H    6.285723   5.414608   2.893510   2.752047   6.556562
    27  H    6.815160   6.354896   3.715761   3.880929   7.326807
    28  H    3.698835   4.136873   2.523647   3.887785   3.877082
    29  H    4.603545   5.332585   4.054469   5.561318   4.280580
    30  H    5.659985   4.955643   2.019338   3.261987   5.164061
    31  H    7.226467   6.582192   3.595086   4.485134   6.890437
    32  H    5.520100   5.564933   3.926440   5.655066   4.119525
    33  H    4.762333   4.393387   2.304613   4.017565   3.632547
    34  H    7.234000   7.145652   4.294113   5.486720   7.111352
    35  H    5.606668   5.709333   3.146588   4.340280   5.810782
    36  H    6.689256   6.903279   4.556757   6.177801   6.068021
    37  H    7.110359   6.625132   4.126344   5.672891   5.857429
    38  H    7.876390   7.713247   5.294884   6.941669   6.659078
    39  H    8.002575   7.659564   4.862880   6.303620   7.120890
                   21         22         23         24         25
    21  H    0.000000
    22  H    5.012685   0.000000
    23  H    4.399010   1.753024   0.000000
    24  H    3.112568   5.866269   4.665148   0.000000
    25  H    2.641655   6.625278   5.420336   1.735251   0.000000
    26  H    4.959757   2.444801   3.019149   6.749011   6.902384
    27  H    5.809682   2.469563   2.518328   6.881038   7.224797
    28  H    3.012568   4.005189   2.494668   2.541626   3.050239
    29  H    3.830377   5.720969   4.103267   2.394002   2.498119
    30  H    3.456256   3.814164   3.246657   5.362253   5.040987
    31  H    5.197784   4.284728   3.828085   6.806559   6.542855
    32  H    3.258346   6.449301   5.128922   3.752897   2.573540
    33  H    2.168739   5.022266   4.001372   3.823101   3.059612
    34  H    5.674759   4.716638   3.509759   6.174414   6.118373
    35  H    4.533954   3.602839   2.047312   4.681318   4.962136
    36  H    4.982632   6.037555   4.480636   4.883690   4.459190
    37  H    4.404123   6.303944   5.331696   5.962359   4.991580
    38  H    5.441200   7.254857   5.991589   6.224780   5.243984
    39  H    5.636257   6.330425   5.276886   6.749965   6.055327
                   26         27         28         29         30
    26  H    0.000000
    27  H    1.737131   0.000000
    28  H    4.593315   4.454570   0.000000
    29  H    6.134459   5.859246   1.754119   0.000000
    30  H    2.405861   3.055409   3.294186   4.433453   0.000000
    31  H    2.414573   2.448825   4.460657   5.456993   1.748865
    32  H    5.940937   6.129647   3.051361   2.475194   3.639002
    33  H    4.362157   4.855197   2.513268   3.040762   2.127474
    34  H    3.946914   3.000479   3.734019   4.271208   2.984539
    35  H    3.640328   2.870919   2.162534   3.116763   2.719739
    36  H    5.573838   5.060890   3.126245   2.621355   3.688926
    37  H    4.866280   5.160999   4.343221   4.483820   2.600901
    38  H    6.085085   5.971035   4.721861   4.302155   3.906354
    39  H    4.878583   4.664206   4.733961   4.860809   3.080662
                   31         32         33         34         35
    31  H    0.000000
    32  H    4.765328   0.000000
    33  H    3.623572   1.744296   0.000000
    34  H    2.300237   4.335672   3.866953   0.000000
    35  H    2.984685   3.860318   3.195049   1.743216   0.000000
    36  H    3.953870   2.507100   3.068614   2.434549   2.538690
    37  H    3.009828   2.606591   2.356708   3.426782   3.891776
    38  H    4.009733   2.684246   3.329262   3.472472   4.168050
    39  H    2.573753   3.636722   3.500095   2.383213   3.536976
                   36         37         38         39
    36  H    0.000000
    37  H    2.885003   0.000000
    38  H    2.188256   1.658972   0.000000
    39  H    2.546245   1.659036   1.659211   0.000000
 Stoichiometry    C12H26N(1+)
 Framework group  C1[X(C12H26N)]
 Deg. of freedom   111
 Full point group                 C1      NOp   1
 Largest Abelian subgroup         C1      NOp   1
 Largest concise Abelian subgroup C1      NOp   1
                         Standard orientation:                         
 ---------------------------------------------------------------------
 Center     Atomic      Atomic             Coordinates (Angstroms)
 Number     Number       Type             X           Y           Z
 ---------------------------------------------------------------------
      1          6           0       -2.468576    1.011796    0.354615
      2          6           0       -3.179718   -0.135802   -0.367388
      3          6           0       -1.281049    1.582207   -0.425217
      4          6           0       -2.336700   -1.362060   -0.761138
      5          6           0       -0.362577    2.424914    0.465088
      6          6           0       -1.666912   -2.132784    0.386201
      7          6           0        1.040475    2.646969   -0.121743
      8          6           0       -0.317874   -1.600922    0.890072
      9          6           0        1.827402    1.374675   -0.479691
     10          6           0        0.817706   -1.673317   -0.139940
     11          6           0        2.097422    0.438060    0.709207
     12          6           0        2.135684   -1.065114    0.375373
     13          7           0        3.190738   -1.306306   -0.653459
     14          1           0       -3.195848    1.818324    0.517476
     15          1           0       -2.162032    0.683350    1.351021
     16          1           0       -4.025968   -0.477275    0.259048
     17          1           0       -3.646307    0.264971   -1.287509
     18          1           0       -0.714404    0.798470   -0.901207
     19          1           0       -1.667810    2.222880   -1.215436
     20          1           0       -3.000049   -2.070759   -1.297585
     21          1           0       -1.605693   -1.060508   -1.532005
     22          1           0       -0.828301    3.383913    0.651980
     23          1           0       -0.254842    1.913340    1.414639
     24          1           0       -2.354488   -2.249169    1.245488
     25          1           0       -1.513418   -3.177827    0.044950
     26          1           0        0.903462    3.191947   -1.063012
     27          1           0        1.635884    3.307949    0.507887
     28          1           0       -0.451528   -0.564811    1.206197
     29          1           0       -0.021202   -2.167393    1.774954
     30          1           0        1.277684    0.821316   -1.231042
     31          1           0        2.773114    1.671208   -0.914972
     32          1           0        0.974121   -2.714140   -0.424361
     33          1           0        0.505103   -1.151934   -1.042505
     34          1           0        3.045478    0.743892    1.172369
     35          1           0        1.333991    0.623882    1.480937
     36          1           0        2.489144   -1.624963    1.250138
     37          1           0        2.793424   -1.260596   -1.595542
     38          1           0        3.612423   -2.230508   -0.527507
     39          1           0        3.931206   -0.603148   -0.582815
 ---------------------------------------------------------------------
 Rotational constants (GHZ):           0.8849880           0.6023892           0.4012734
 Standard basis: 6-31G(d,p) (6D, 7F)
 There are   325 symmetry adapted cartesian basis functions of A   symmetry.
 There are   325 symmetry adapted basis functions of A   symmetry.
   325 basis functions,   546 primitive gaussians,   325 cartesian basis functions
    52 alpha electrons       52 beta electrons
       nuclear repulsion energy       912.8254809340 Hartrees.
 NAtoms=   39 NActive=   39 NUniq=   39 SFac= 1.00D+00 NAtFMM=   60 NAOKFM=F Big=F
 Integral buffers will be    131072 words long.
 Raffenetti 2 integral format.
 Two-electron integral symmetry is turned on.
 One-electron integrals computed using PRISM.
 NBasis=   325 RedAO= T EigKep=  2.66D-03  NBF=   325
 NBsUse=   325 1.00D-06 EigRej= -1.00D+00 NBFU=   325
 ExpMin= 1.61D-01 ExpMax= 4.17D+03 ExpMxC= 6.27D+02 IAcc=3 IRadAn=         5 AccDes= 0.00D+00
 Harris functional with IExCor=  402 and IRadAn=       5 diagonalized for initial guess.
 HarFok:  IExCor=  402 AccDes= 0.00D+00 IRadAn=         5 IDoV= 1 UseB2=F ITyADJ=14
 ICtDFT=  3500011 ScaDFX=  1.000000  1.000000  1.000000  1.000000
 FoFCou: FMM=F IPFlag=           0 FMFlag=      100000 FMFlg1=           0
         NFxFlg=           0 DoJE=T BraDBF=F KetDBF=T FulRan=T
         wScrn=  0.000000 ICntrl=       500 IOpCl=  0 I1Cent=   200000004 NGrid=           0
         NMat0=    1 NMatS0=      1 NMatT0=    0 NMatD0=    1 NMtDS0=    0 NMtDT0=    0
 Petite list used in FoFCou.
 Requested convergence on RMS density matrix=1.00D-08 within 128 cycles.
 Requested convergence on MAX density matrix=1.00D-06.
 Requested convergence on             energy=1.00D-06.
 No special actions if energy rises.
 Integral accuracy reduced to 1.0D-05 until final iterations.
 Initial convergence to 1.0D-05 achieved.  Increase integral accuracy.
 SCF Done:  E(RB3LYP) =  -527.497197262     A.U. after   12 cycles
            NFock= 12  Conv=0.29D-08     -V/T= 2.0096

 **********************************************************************

            Population analysis using the SCF density.

 **********************************************************************

 Orbital symmetries:
       Occupied  (A) (A) (A) (A) (A) (A) (A) (A) (A) (A) (A) (A)
                 (A) (A) (A) (A) (A) (A) (A) (A) (A) (A) (A) (A)
                 (A) (A) (A) (A) (A) (A) (A) (A) (A) (A) (A) (A)
                 (A) (A) (A) (A) (A) (A) (A) (A) (A) (A) (A) (A)
                 (A) (A) (A) (A)
       Virtual   (A) (A) (A) (A) (A) (A) (A) (A) (A) (A) (A) (A)
                 (A) (A) (A) (A) (A) (A) (A) (A) (A) (A) (A) (A)
                 (A) (A) (A) (A) (A) (A) (A) (A) (A) (A) (A) (A)
                 (A) (A) (A) (A) (A) (A) (A) (A) (A) (A) (A) (A)
                 (A) (A) (A) (A) (A) (A) (A) (A) (A) (A) (A) (A)
                 (A) (A) (A) (A) (A) (A) (A) (A) (A) (A) (A) (A)
                 (A) (A) (A) (A) (A) (A) (A) (A) (A) (A) (A) (A)
                 (A) (A) (A) (A) (A) (A) (A) (A) (A) (A) (A) (A)
                 (A) (A) (A) (A) (A) (A) (A) (A) (A) (A) (A) (A)
                 (A) (A) (A) (A) (A) (A) (A) (A) (A) (A) (A) (A)
                 (A) (A) (A) (A) (A) (A) (A) (A) (A) (A) (A) (A)
                 (A) (A) (A) (A) (A) (A) (A) (A) (A) (A) (A) (A)
                 (A) (A) (A) (A) (A) (A) (A) (A) (A) (A) (A) (A)
                 (A) (A) (A) (A) (A) (A) (A) (A) (A) (A) (A) (A)
                 (A) (A) (A) (A) (A) (A) (A) (A) (A) (A) (A) (A)
                 (A) (A) (A) (A) (A) (A) (A) (A) (A) (A) (A) (A)
                 (A) (A) (A) (A) (A) (A) (A) (A) (A) (A) (A) (A)
                 (A) (A) (A) (A) (A) (A) (A) (A) (A) (A) (A) (A)
                 (A) (A) (A) (A) (A) (A) (A) (A) (A) (A) (A) (A)
                 (A) (A) (A) (A) (A) (A) (A) (A) (A) (A) (A) (A)
                 (A) (A) (A) (A) (A) (A) (A) (A) (A) (A) (A) (A)
                 (A) (A) (A) (A) (A) (A) (A) (A) (A) (A) (A) (A)
                 (A) (A) (A) (A) (A) (A) (A) (A) (A)
 The electronic state is 1-A.
 Alpha  occ. eigenvalues --  -14.64604 -10.41692 -10.34220 -10.34079 -10.31955
 Alpha  occ. eigenvalues --  -10.30955 -10.29425 -10.29068 -10.28029 -10.28013
 Alpha  occ. eigenvalues --  -10.27414 -10.27009 -10.26943  -1.19660  -0.97251
 Alpha  occ. eigenvalues --   -0.92773  -0.91356  -0.87044  -0.86671  -0.80992
 Alpha  occ. eigenvalues --   -0.80862  -0.77807  -0.76179  -0.74978  -0.73708
 Alpha  occ. eigenvalues --   -0.69381  -0.67882  -0.65248  -0.64776  -0.63083
 Alpha  occ. eigenvalues --   -0.59700  -0.58083  -0.57495  -0.55528  -0.54622
 Alpha  occ. eigenvalues --   -0.53568  -0.52678  -0.51496  -0.51356  -0.49975
 Alpha  occ. eigenvalues --   -0.48845  -0.48633  -0.48036  -0.46656  -0.45528
 Alpha  occ. eigenvalues --   -0.44757  -0.44058  -0.43087  -0.42646  -0.40778
 Alpha  occ. eigenvalues --   -0.40385  -0.39962
 Alpha virt. eigenvalues --   -0.15018  -0.09688  -0.09391  -0.05576  -0.03675
 Alpha virt. eigenvalues --   -0.03533  -0.01541  -0.01224  -0.00285   0.01126
 Alpha virt. eigenvalues --    0.01683   0.02444   0.03191   0.04061   0.04533
 Alpha virt. eigenvalues --    0.04934   0.05586   0.06116   0.07054   0.07504
 Alpha virt. eigenvalues --    0.07962   0.08542   0.09513   0.09745   0.10386
 Alpha virt. eigenvalues --    0.10557   0.11170   0.11815   0.12441   0.12838
 Alpha virt. eigenvalues --    0.13394   0.14699   0.15960   0.16325   0.17357
 Alpha virt. eigenvalues --    0.18367   0.19517   0.21335   0.22480   0.33957
 Alpha virt. eigenvalues --    0.35676   0.36163   0.36668   0.37493   0.40345
 Alpha virt. eigenvalues --    0.40720   0.41095   0.43108   0.43603   0.45666
 Alpha virt. eigenvalues --    0.46550   0.48533   0.48638   0.49850   0.51694
 Alpha virt. eigenvalues --    0.51898   0.52846   0.53863   0.54833   0.55795
 Alpha virt. eigenvalues --    0.56811   0.57447   0.58909   0.59289   0.60344
 Alpha virt. eigenvalues --    0.61403   0.61550   0.63613   0.64823   0.66268
 Alpha virt. eigenvalues --    0.66628   0.67079   0.68240   0.69309   0.70989
 Alpha virt. eigenvalues --    0.71736   0.72392   0.73095   0.73222   0.74849
 Alpha virt. eigenvalues --    0.76858   0.77358   0.77959   0.78338   0.78568
 Alpha virt. eigenvalues --    0.80346   0.80659   0.81380   0.82672   0.83657
 Alpha virt. eigenvalues --    0.84064   0.84506   0.84978   0.85602   0.86303
 Alpha virt. eigenvalues --    0.87767   0.89219   0.90455   0.90942   0.93497
 Alpha virt. eigenvalues --    0.94707   0.97926   0.99873   1.00636   1.04125
 Alpha virt. eigenvalues --    1.06755   1.09740   1.11679   1.13156   1.20604
 Alpha virt. eigenvalues --    1.23923   1.25419   1.27633   1.29640   1.31231
 Alpha virt. eigenvalues --    1.32240   1.35906   1.39787   1.41541   1.45057
 Alpha virt. eigenvalues --    1.45964   1.46395   1.47938   1.50815   1.51387
 Alpha virt. eigenvalues --    1.54283   1.56083   1.59009   1.59434   1.59673
 Alpha virt. eigenvalues --    1.62598   1.63134   1.65823   1.66885   1.67551
 Alpha virt. eigenvalues --    1.67666   1.68825   1.69627   1.72298   1.72585
 Alpha virt. eigenvalues --    1.73576   1.75112   1.75479   1.76521   1.77941
 Alpha virt. eigenvalues --    1.79886   1.80474   1.81585   1.82327   1.83225
 Alpha virt. eigenvalues --    1.83644   1.85881   1.86277   1.89610   1.91268
 Alpha virt. eigenvalues --    1.93393   1.97910   1.98974   2.00560   2.00979
 Alpha virt. eigenvalues --    2.01996   2.02747   2.03934   2.04374   2.05481
 Alpha virt. eigenvalues --    2.06948   2.08384   2.08699   2.10373   2.10931
 Alpha virt. eigenvalues --    2.12007   2.12243   2.14233   2.15722   2.16027
 Alpha virt. eigenvalues --    2.16911   2.17443   2.17926   2.18820   2.19578
 Alpha virt. eigenvalues --    2.20872   2.22810   2.23332   2.23926   2.24940
 Alpha virt. eigenvalues --    2.27179   2.28815   2.30040   2.30432   2.32264
 Alpha virt. eigenvalues --    2.32798   2.36017   2.39391   2.40753   2.41792
 Alpha virt. eigenvalues --    2.44786   2.45073   2.46393   2.47980   2.48710
 Alpha virt. eigenvalues --    2.50542   2.51333   2.52454   2.54044   2.55379
 Alpha virt. eigenvalues --    2.56278   2.56962   2.58307   2.60382   2.61618
 Alpha virt. eigenvalues --    2.63366   2.64800   2.65706   2.67280   2.68449
 Alpha virt. eigenvalues --    2.69038   2.70890   2.71913   2.73344   2.75171
 Alpha virt. eigenvalues --    2.76141   2.76422   2.77246   2.78629   2.78987
 Alpha virt. eigenvalues --    2.79691   2.80266   2.80615   2.81303   2.82038
 Alpha virt. eigenvalues --    2.82978   2.83095   2.84685   2.86759   2.98118
 Alpha virt. eigenvalues --    3.11513   3.13442   3.15167   3.15883   3.18143
 Alpha virt. eigenvalues --    3.18618   3.20533   3.22283   3.23256   3.24736
 Alpha virt. eigenvalues --    3.25639   3.26306   3.27377   3.28965   3.31351
 Alpha virt. eigenvalues --    3.32779   3.33997   3.35945   3.38315   3.40702
 Alpha virt. eigenvalues --    3.43231   3.45710   3.47618   3.48801   3.52132
 Alpha virt. eigenvalues --    3.93647   4.12818   4.17539   4.19624   4.36388
 Alpha virt. eigenvalues --    4.36760   4.50489   4.51467   4.53148   4.55142
 Alpha virt. eigenvalues --    4.58488   4.66768   4.67818
          Condensed to atoms (all electrons):
               1          2          3          4          5          6
     1  C    4.919929   0.365714   0.372994  -0.045943  -0.035692  -0.001565
     2  C    0.365714   4.910039  -0.043566   0.378418   0.003872  -0.042566
     3  C    0.372994  -0.043566   4.931312  -0.007098   0.372248  -0.001226
     4  C   -0.045943   0.378418  -0.007098   4.925430   0.000212   0.367355
     5  C   -0.035692   0.003872   0.372248   0.000212   4.914871   0.000019
     6  C   -0.001565  -0.042566  -0.001226   0.367355   0.000019   4.918229
     7  C    0.003820  -0.000172  -0.040730   0.000004   0.369446   0.000001
     8  C   -0.001636  -0.002360  -0.000255  -0.038042  -0.000558   0.367135
     9  C    0.000307   0.000001  -0.007642   0.000001  -0.044043  -0.000001
    10  C    0.000209  -0.000012  -0.000598  -0.007378   0.000288  -0.035730
    11  C    0.000004  -0.000001  -0.000759  -0.000010  -0.007591   0.000140
    12  C    0.000020  -0.000008  -0.000090   0.000271   0.000101   0.003469
    13  N   -0.000000  -0.000000   0.000004   0.000001   0.000001  -0.000082
    14  H    0.383555  -0.029653  -0.034961   0.004828  -0.001564  -0.000123
    15  H    0.388652  -0.039344  -0.051584  -0.006157  -0.007977   0.004886
    16  H   -0.032415   0.380495   0.004874  -0.039009  -0.000144  -0.006847
    17  H   -0.038562   0.379941  -0.004984  -0.034568   0.000057   0.005145
    18  H   -0.046022  -0.007150   0.384919   0.003951  -0.050145  -0.000963
    19  H   -0.033102  -0.000264   0.386977  -0.000402  -0.035121   0.000078
    20  H    0.004630  -0.030329   0.000210   0.380966  -0.000002  -0.032904
    21  H   -0.006272  -0.040340   0.000994   0.375030  -0.000120  -0.044797
    22  H   -0.000921  -0.000079  -0.033009  -0.000000   0.388123  -0.000002
    23  H   -0.007385   0.000346  -0.053710  -0.000015   0.387517   0.000020
    24  H   -0.000522  -0.005496   0.000084  -0.036437   0.000000   0.382459
    25  H   -0.000029   0.004371  -0.000025  -0.034356   0.000000   0.380125
    26  H    0.000039   0.000003  -0.005599   0.000000  -0.039068   0.000000
    27  H   -0.000133   0.000002   0.004323   0.000000  -0.027538   0.000000
    28  H    0.000983   0.001735  -0.000336  -0.005559   0.000410  -0.037795
    29  H   -0.000018  -0.000053   0.000040   0.004163   0.000002  -0.029151
    30  H   -0.000267   0.000027   0.002350  -0.000070  -0.005876   0.000014
    31  H   -0.000003  -0.000000   0.000338  -0.000000   0.004123   0.000000
    32  H   -0.000011   0.000017   0.000022  -0.000344  -0.000001  -0.002095
    33  H   -0.000037  -0.000153  -0.000224   0.003823  -0.000011  -0.003558
    34  H   -0.000000   0.000000   0.000014  -0.000000  -0.000115  -0.000001
    35  H   -0.000166   0.000001  -0.000387   0.000013   0.004109  -0.000085
    36  H    0.000000   0.000000  -0.000003   0.000001  -0.000006  -0.000022
    37  H    0.000000   0.000000  -0.000004  -0.000004   0.000002  -0.000005
    38  H   -0.000000   0.000000   0.000000   0.000000   0.000000   0.000000
    39  H    0.000000  -0.000000   0.000000   0.000000   0.000004   0.000002
               7          8          9         10         11         12
     1  C    0.003820  -0.001636   0.000307   0.000209   0.000004   0.000020
     2  C   -0.000172  -0.002360   0.000001  -0.000012  -0.000001  -0.000008
     3  C   -0.040730  -0.000255  -0.007642  -0.000598  -0.000759  -0.000090
     4  C    0.000004  -0.038042   0.000001  -0.007378  -0.000010   0.000271
     5  C    0.369446  -0.000558  -0.044043   0.000288  -0.007591   0.000101
     6  C    0.000001   0.367135  -0.000001  -0.035730   0.000140   0.003469
     7  C    4.900589   0.000048   0.372799   0.000285  -0.037069   0.003309
     8  C    0.000048   4.900216  -0.000157   0.367446  -0.003670  -0.032746
     9  C    0.372799  -0.000157   4.992896  -0.009397   0.337169  -0.034855
    10  C    0.000285   0.367446  -0.009397   5.022253  -0.045630   0.337940
    11  C   -0.037069  -0.003670   0.337169  -0.045630   5.037692   0.352411
    12  C    0.003309  -0.032746  -0.034855   0.337940   0.352411   5.096572
    13  N   -0.000047   0.002836  -0.007038  -0.049849  -0.048342   0.129268
    14  H   -0.000060   0.000117  -0.000003  -0.000006  -0.000000  -0.000000
    15  H    0.000362  -0.004070  -0.000020   0.000119  -0.000065   0.000006
    16  H    0.000002  -0.000113   0.000000   0.000000   0.000000   0.000000
    17  H    0.000003  -0.000098   0.000000   0.000001  -0.000000   0.000000
    18  H   -0.008070   0.001200   0.000070  -0.001193   0.000850  -0.000201
    19  H   -0.000693  -0.000023  -0.000448   0.000021   0.000024   0.000001
    20  H   -0.000000   0.004807  -0.000000   0.000287   0.000000  -0.000002
    21  H    0.000023  -0.009104  -0.000037  -0.000611   0.000021  -0.000081
    22  H   -0.029649   0.000021   0.004921  -0.000003   0.000236   0.000002
    23  H   -0.044939  -0.000736  -0.008012   0.000097  -0.000205  -0.000308
    24  H    0.000000  -0.031141  -0.000001   0.004667   0.000002  -0.000129
    25  H    0.000000  -0.043142  -0.000000  -0.009488  -0.000000   0.000077
    26  H    0.381973  -0.000005  -0.035501  -0.000004   0.005237  -0.000191
    27  H    0.385587   0.000001  -0.040793  -0.000008  -0.004938   0.000047
    28  H   -0.000158   0.389055  -0.000159  -0.044976   0.002254  -0.007362
    29  H   -0.000001   0.386218   0.000036  -0.044431  -0.000964  -0.003427
    30  H   -0.031394  -0.000038   0.387955  -0.000800  -0.065114  -0.003402
    31  H   -0.025600  -0.000008   0.377997   0.000126  -0.039262  -0.002745
    32  H   -0.000001  -0.029794   0.000083   0.376889   0.004842  -0.040349
    33  H   -0.000280  -0.034257   0.001922   0.374592  -0.008482  -0.035229
    34  H    0.001130   0.000190  -0.041672   0.004605   0.373526  -0.032484
    35  H   -0.007222   0.001621  -0.039801  -0.005899   0.394474  -0.030437
    36  H   -0.000103  -0.001657   0.004118  -0.041257  -0.035527   0.399777
    37  H   -0.000052  -0.000097   0.002689  -0.003442  -0.001536  -0.021563
    38  H    0.000000  -0.000084   0.000217   0.000705   0.003968  -0.018234
    39  H   -0.000089  -0.000099   0.000704   0.004587  -0.001965  -0.022107
              13         14         15         16         17         18
     1  C   -0.000000   0.383555   0.388652  -0.032415  -0.038562  -0.046022
     2  C   -0.000000  -0.029653  -0.039344   0.380495   0.379941  -0.007150
     3  C    0.000004  -0.034961  -0.051584   0.004874  -0.004984   0.384919
     4  C    0.000001   0.004828  -0.006157  -0.039009  -0.034568   0.003951
     5  C    0.000001  -0.001564  -0.007977  -0.000144   0.000057  -0.050145
     6  C   -0.000082  -0.000123   0.004886  -0.006847   0.005145  -0.000963
     7  C   -0.000047  -0.000060   0.000362   0.000002   0.000003  -0.008070
     8  C    0.002836   0.000117  -0.004070  -0.000113  -0.000098   0.001200
     9  C   -0.007038  -0.000003  -0.000020   0.000000   0.000000   0.000070
    10  C   -0.049849  -0.000006   0.000119   0.000000   0.000001  -0.001193
    11  C   -0.048342  -0.000000  -0.000065   0.000000  -0.000000   0.000850
    12  C    0.129268  -0.000000   0.000006   0.000000   0.000000  -0.000201
    13  N    6.569190  -0.000000  -0.000000   0.000000   0.000000   0.000008
    14  H   -0.000000   0.607816  -0.035361  -0.002894  -0.006133   0.006167
    15  H   -0.000000  -0.035361   0.641506  -0.004796   0.006132  -0.001879
    16  H    0.000000  -0.002894  -0.004796   0.621754  -0.034032   0.000155
    17  H    0.000000  -0.006133   0.006132  -0.034032   0.627947  -0.000603
    18  H    0.000008   0.006167  -0.001879   0.000155  -0.000603   0.685397
    19  H   -0.000000  -0.009436   0.005753  -0.000106   0.002977  -0.039590
    20  H   -0.000000  -0.000137  -0.000066  -0.004645  -0.003666  -0.000193
    21  H    0.000012  -0.000077   0.000071   0.005950  -0.004348   0.001680
    22  H    0.000000   0.002087  -0.000212   0.000003  -0.000002   0.006096
    23  H   -0.000003  -0.000291   0.007202  -0.000012   0.000010  -0.001878
    24  H    0.000001  -0.000063   0.000795   0.004414   0.000096  -0.000020
    25  H   -0.000002   0.000002  -0.000088   0.000031  -0.000204   0.000017
    26  H    0.000002  -0.000003   0.000009  -0.000000  -0.000000  -0.000360
    27  H   -0.000003   0.000004  -0.000009  -0.000000  -0.000000   0.000090
    28  H    0.000050  -0.000034   0.002725   0.000022  -0.000072  -0.000882
    29  H    0.000020  -0.000002   0.000223  -0.000003   0.000004   0.000001
    30  H   -0.001846   0.000001   0.000019  -0.000001   0.000001   0.001008
    31  H    0.001980   0.000000  -0.000001   0.000000  -0.000000  -0.000033
    32  H   -0.001443   0.000000  -0.000005   0.000001  -0.000001   0.000089
    33  H   -0.005835  -0.000003   0.000045   0.000006   0.000020   0.000389
    34  H   -0.004904   0.000000   0.000000  -0.000000  -0.000000  -0.000013
    35  H    0.004083   0.000004  -0.000117   0.000000  -0.000000  -0.000262
    36  H   -0.047825  -0.000000   0.000000  -0.000000   0.000000  -0.000011
    37  H    0.324881  -0.000000  -0.000000  -0.000000  -0.000000  -0.000055
    38  H    0.333962   0.000000   0.000000  -0.000000   0.000000  -0.000001
    39  H    0.325968   0.000000  -0.000000   0.000000  -0.000000  -0.000003
              19         20         21         22         23         24
     1  C   -0.033102   0.004630  -0.006272  -0.000921  -0.007385  -0.000522
     2  C   -0.000264  -0.030329  -0.040340  -0.000079   0.000346  -0.005496
     3  C    0.386977   0.000210   0.000994  -0.033009  -0.053710   0.000084
     4  C   -0.000402   0.380966   0.375030  -0.000000  -0.000015  -0.036437
     5  C   -0.035121  -0.000002  -0.000120   0.388123   0.387517   0.000000
     6  C    0.000078  -0.032904  -0.044797  -0.000002   0.000020   0.382459
     7  C   -0.000693  -0.000000   0.000023  -0.029649  -0.044939   0.000000
     8  C   -0.000023   0.004807  -0.009104   0.000021  -0.000736  -0.031141
     9  C   -0.000448  -0.000000  -0.000037   0.004921  -0.008012  -0.000001
    10  C    0.000021   0.000287  -0.000611  -0.000003   0.000097   0.004667
    11  C    0.000024   0.000000   0.000021   0.000236  -0.000205   0.000002
    12  C    0.000001  -0.000002  -0.000081   0.000002  -0.000308  -0.000129
    13  N   -0.000000  -0.000000   0.000012   0.000000  -0.000003   0.000001
    14  H   -0.009436  -0.000137  -0.000077   0.002087  -0.000291  -0.000063
    15  H    0.005753  -0.000066   0.000071  -0.000212   0.007202   0.000795
    16  H   -0.000106  -0.004645   0.005950   0.000003  -0.000012   0.004414
    17  H    0.002977  -0.003666  -0.004348  -0.000002   0.000010   0.000096
    18  H   -0.039590  -0.000193   0.001680   0.006096  -0.001878  -0.000020
    19  H    0.605041  -0.000020   0.000328  -0.009199   0.006167   0.000001
    20  H   -0.000020   0.610590  -0.036249   0.000000  -0.000000  -0.000521
    21  H    0.000328  -0.036249   0.668598  -0.000001   0.000015   0.005205
    22  H   -0.009199   0.000000  -0.000001   0.582150  -0.030891  -0.000000
    23  H    0.006167  -0.000000   0.000015  -0.030891   0.645398  -0.000001
    24  H    0.000001  -0.000521   0.005205  -0.000000  -0.000001   0.599585
    25  H    0.000000  -0.008945   0.000009   0.000000   0.000000  -0.035839
    26  H    0.003388  -0.000000   0.000001  -0.004218   0.006430   0.000000
    27  H   -0.000104   0.000000  -0.000000  -0.003086  -0.003443  -0.000000
    28  H    0.000047  -0.000018   0.000152  -0.000033   0.001324  -0.003230
    29  H   -0.000001  -0.000165   0.000034  -0.000000  -0.000006  -0.004620
    30  H    0.000283   0.000002  -0.000183  -0.000030   0.000097  -0.000001
    31  H   -0.000031   0.000000   0.000000  -0.000135  -0.000128  -0.000000
    32  H   -0.000001  -0.000048   0.000453   0.000000  -0.000002  -0.000007
    33  H   -0.000018  -0.000358   0.004598  -0.000001   0.000020   0.000056
    34  H    0.000000   0.000000   0.000000  -0.000009   0.000049  -0.000000
    35  H    0.000028  -0.000000   0.000008  -0.000373   0.007333   0.000005
    36  H    0.000000   0.000000  -0.000006  -0.000000   0.000022  -0.000006
    37  H    0.000000   0.000000  -0.000012  -0.000000   0.000000  -0.000000
    38  H    0.000000  -0.000000  -0.000000  -0.000000   0.000000  -0.000000
    39  H   -0.000000   0.000000  -0.000000  -0.000000   0.000000  -0.000000
              25         26         27         28         29         30
     1  C   -0.000029   0.000039  -0.000133   0.000983  -0.000018  -0.000267
     2  C    0.004371   0.000003   0.000002   0.001735  -0.000053   0.000027
     3  C   -0.000025  -0.005599   0.004323  -0.000336   0.000040   0.002350
     4  C   -0.034356   0.000000   0.000000  -0.005559   0.004163  -0.000070
     5  C    0.000000  -0.039068  -0.027538   0.000410   0.000002  -0.005876
     6  C    0.380125   0.000000   0.000000  -0.037795  -0.029151   0.000014
     7  C    0.000000   0.381973   0.385587  -0.000158  -0.000001  -0.031394
     8  C   -0.043142  -0.000005   0.000001   0.389055   0.386218  -0.000038
     9  C   -0.000000  -0.035501  -0.040793  -0.000159   0.000036   0.387955
    10  C   -0.009488  -0.000004  -0.000008  -0.044976  -0.044431  -0.000800
    11  C   -0.000000   0.005237  -0.004938   0.002254  -0.000964  -0.065114
    12  C    0.000077  -0.000191   0.000047  -0.007362  -0.003427  -0.003402
    13  N   -0.000002   0.000002  -0.000003   0.000050   0.000020  -0.001846
    14  H    0.000002  -0.000003   0.000004  -0.000034  -0.000002   0.000001
    15  H   -0.000088   0.000009  -0.000009   0.002725   0.000223   0.000019
    16  H    0.000031  -0.000000  -0.000000   0.000022  -0.000003  -0.000001
    17  H   -0.000204  -0.000000  -0.000000  -0.000072   0.000004   0.000001
    18  H    0.000017  -0.000360   0.000090  -0.000882   0.000001   0.001008
    19  H    0.000000   0.003388  -0.000104   0.000047  -0.000001   0.000283
    20  H   -0.008945  -0.000000   0.000000  -0.000018  -0.000165   0.000002
    21  H    0.000009   0.000001  -0.000000   0.000152   0.000034  -0.000183
    22  H    0.000000  -0.004218  -0.003086  -0.000033  -0.000000  -0.000030
    23  H    0.000000   0.006430  -0.003443   0.001324  -0.000006   0.000097
    24  H   -0.035839   0.000000  -0.000000  -0.003230  -0.004620  -0.000001
    25  H    0.639538  -0.000000   0.000000   0.006156  -0.003398   0.000001
    26  H   -0.000000   0.612324  -0.034085   0.000006   0.000000  -0.005544
    27  H    0.000000  -0.034085   0.604262   0.000003  -0.000000   0.005613
    28  H    0.006156   0.000006   0.000003   0.610539  -0.035395  -0.000078
    29  H   -0.003398   0.000000  -0.000000  -0.035395   0.611453  -0.000003
    30  H    0.000001  -0.005544   0.005613  -0.000078  -0.000003   0.641874
    31  H   -0.000000  -0.003679  -0.003851  -0.000006   0.000001  -0.036457
    32  H    0.005229  -0.000000   0.000000   0.005733  -0.006322  -0.000215
    33  H   -0.000469   0.000020   0.000002  -0.005525   0.006049   0.005659
    34  H    0.000000  -0.000154   0.001567  -0.000027  -0.000050   0.006036
    35  H    0.000001   0.000332  -0.000078   0.003446   0.000472   0.000634
    36  H    0.000001   0.000002   0.000003  -0.000434   0.004388   0.000260
    37  H    0.000002   0.000001   0.000003   0.000018   0.000031   0.001966
    38  H    0.000000  -0.000000   0.000000   0.000008   0.000002  -0.000053
    39  H    0.000000   0.000001  -0.000001   0.000008  -0.000001   0.000451
              31         32         33         34         35         36
     1  C   -0.000003  -0.000011  -0.000037  -0.000000  -0.000166   0.000000
     2  C   -0.000000   0.000017  -0.000153   0.000000   0.000001   0.000000
     3  C    0.000338   0.000022  -0.000224   0.000014  -0.000387  -0.000003
     4  C   -0.000000  -0.000344   0.003823  -0.000000   0.000013   0.000001
     5  C    0.004123  -0.000001  -0.000011  -0.000115   0.004109  -0.000006
     6  C    0.000000  -0.002095  -0.003558  -0.000001  -0.000085  -0.000022
     7  C   -0.025600  -0.000001  -0.000280   0.001130  -0.007222  -0.000103
     8  C   -0.000008  -0.029794  -0.034257   0.000190   0.001621  -0.001657
     9  C    0.377997   0.000083   0.001922  -0.041672  -0.039801   0.004118
    10  C    0.000126   0.376889   0.374592   0.004605  -0.005899  -0.041257
    11  C   -0.039262   0.004842  -0.008482   0.373526   0.394474  -0.035527
    12  C   -0.002745  -0.040349  -0.035229  -0.032484  -0.030437   0.399777
    13  N    0.001980  -0.001443  -0.005835  -0.004904   0.004083  -0.047825
    14  H    0.000000   0.000000  -0.000003   0.000000   0.000004  -0.000000
    15  H   -0.000001  -0.000005   0.000045   0.000000  -0.000117   0.000000
    16  H    0.000000   0.000001   0.000006  -0.000000   0.000000  -0.000000
    17  H   -0.000000  -0.000001   0.000020  -0.000000  -0.000000   0.000000
    18  H   -0.000033   0.000089   0.000389  -0.000013  -0.000262  -0.000011
    19  H   -0.000031  -0.000001  -0.000018   0.000000   0.000028   0.000000
    20  H    0.000000  -0.000048  -0.000358   0.000000  -0.000000   0.000000
    21  H    0.000000   0.000453   0.004598   0.000000   0.000008  -0.000006
    22  H   -0.000135   0.000000  -0.000001  -0.000009  -0.000373  -0.000000
    23  H   -0.000128  -0.000002   0.000020   0.000049   0.007333   0.000022
    24  H   -0.000000  -0.000007   0.000056  -0.000000   0.000005  -0.000006
    25  H   -0.000000   0.005229  -0.000469   0.000000   0.000001   0.000001
    26  H   -0.003679  -0.000000   0.000020  -0.000154   0.000332   0.000002
    27  H   -0.003851   0.000000   0.000002   0.001567  -0.000078   0.000003
    28  H   -0.000006   0.005733  -0.005525  -0.000027   0.003446  -0.000434
    29  H    0.000001  -0.006322   0.006049  -0.000050   0.000472   0.004388
    30  H   -0.036457  -0.000215   0.005659   0.006036   0.000634   0.000260
    31  H    0.628975  -0.000007  -0.000069  -0.011169   0.005087  -0.000181
    32  H   -0.000007   0.611448  -0.040157  -0.000132   0.000070  -0.004883
    33  H   -0.000069  -0.040157   0.605327  -0.000039   0.000074   0.005371
    34  H   -0.011169  -0.000132  -0.000039   0.603826  -0.024876  -0.004248
    35  H    0.005087   0.000070   0.000074  -0.024876   0.530851  -0.001915
    36  H   -0.000181  -0.004883   0.005371  -0.004248  -0.001915   0.561472
    37  H   -0.000053   0.000166   0.007997  -0.000054  -0.000051   0.005240
    38  H    0.000030   0.002089  -0.000189  -0.000131  -0.000109  -0.006797
    39  H    0.001849  -0.000010  -0.000141   0.005660   0.000026   0.000154
              37         38         39
     1  C    0.000000  -0.000000   0.000000
     2  C    0.000000   0.000000  -0.000000
     3  C   -0.000004   0.000000   0.000000
     4  C   -0.000004   0.000000   0.000000
     5  C    0.000002   0.000000   0.000004
     6  C   -0.000005   0.000000   0.000002
     7  C   -0.000052   0.000000  -0.000089
     8  C   -0.000097  -0.000084  -0.000099
     9  C    0.002689   0.000217   0.000704
    10  C   -0.003442   0.000705   0.004587
    11  C   -0.001536   0.003968  -0.001965
    12  C   -0.021563  -0.018234  -0.022107
    13  N    0.324881   0.333962   0.325968
    14  H   -0.000000   0.000000   0.000000
    15  H   -0.000000   0.000000  -0.000000
    16  H   -0.000000  -0.000000   0.000000
    17  H   -0.000000   0.000000  -0.000000
    18  H   -0.000055  -0.000001  -0.000003
    19  H    0.000000   0.000000  -0.000000
    20  H    0.000000  -0.000000   0.000000
    21  H   -0.000012  -0.000000  -0.000000
    22  H   -0.000000  -0.000000  -0.000000
    23  H    0.000000   0.000000   0.000000
    24  H   -0.000000  -0.000000  -0.000000
    25  H    0.000002   0.000000   0.000000
    26  H    0.000001  -0.000000   0.000001
    27  H    0.000003   0.000000  -0.000001
    28  H    0.000018   0.000008   0.000008
    29  H    0.000031   0.000002  -0.000001
    30  H    0.001966  -0.000053   0.000451
    31  H   -0.000053   0.000030   0.001849
    32  H    0.000166   0.002089  -0.000010
    33  H    0.007997  -0.000189  -0.000141
    34  H   -0.000054  -0.000131   0.005660
    35  H   -0.000051  -0.000109   0.000026
    36  H    0.005240  -0.006797   0.000154
    37  H    0.354081  -0.015000  -0.015371
    38  H   -0.015000   0.347927  -0.014366
    39  H   -0.015371  -0.014366   0.354769
 Mulliken charges:
               1
     1  C   -0.190155
     2  C   -0.183437
     3  C   -0.174912
     4  C   -0.189072
     5  C   -0.189833
     6  C   -0.189557
     7  C   -0.193052
     8  C   -0.187017
     9  C   -0.214306
    10  C   -0.194404
    11  C   -0.211717
    12  C   -0.037321
    13  N   -0.525049
    14  H    0.116222
    15  H    0.093248
    16  H    0.107310
    17  H    0.104940
    18  H    0.067437
    19  H    0.117444
    20  H    0.116775
    21  H    0.079058
    22  H    0.128213
    23  H    0.089919
    24  H    0.120662
    25  H    0.100423
    26  H    0.118645
    27  H    0.116565
    28  H    0.117407
    29  H    0.114874
    30  H    0.097122
    31  H    0.102911
    32  H    0.118695
    33  H    0.119066
    34  H    0.123476
    35  H    0.159106
    36  H    0.164070
    37  H    0.360220
    38  H    0.366055
    39  H    0.359969
 Sum of Mulliken charges =   1.00000
 Mulliken charges with hydrogens summed into heavy atoms:
               1
     1  C    0.019315
     2  C    0.028813
     3  C    0.009968
     4  C    0.006761
     5  C    0.028300
     6  C    0.031527
     7  C    0.042158
     8  C    0.045264
     9  C   -0.014273
    10  C    0.043357
    11  C    0.070866
    12  C    0.126749
    13  N    0.561196
 Electronic spatial extent (au):  <R**2>=           2982.0458
 Charge=              1.0000 electrons
 Dipole moment (field-independent basis, Debye):
    X=             11.0581    Y=             -4.4356    Z=             -1.8940  Tot=             12.0641
 Quadrupole moment (field-independent basis, Debye-Ang):
   XX=            -36.0808   YY=            -67.4481   ZZ=            -78.1956
   XY=            -15.3752   XZ=             -7.3613   YZ=              2.7524
 Traceless Quadrupole moment (field-independent basis, Debye-Ang):
   XX=             24.4940   YY=             -6.8732   ZZ=            -17.6208
   XY=            -15.3752   XZ=             -7.3613   YZ=              2.7524
 Octapole moment (field-independent basis, Debye-Ang**2):
  XXX=            157.5494  YYY=            -16.9393  ZZZ=             -6.8245  XYY=             32.7610
  XXY=            -57.0956  XXZ=            -26.8511  XZZ=             17.1714  YZZ=             -8.4094
  YYZ=             -5.0249  XYZ=             11.7320
 Hexadecapole moment (field-independent basis, Debye-Ang**3):
 XXXX=          -1542.7817 YYYY=          -1379.8356 ZZZZ=           -318.5997 XXXY=           -210.6266
 XXXZ=            -99.5527 YYYX=            -87.3426 YYYZ=             13.0534 ZZZX=            -24.2644
 ZZZY=              5.7967 XXYY=           -474.8631 XXZZ=           -372.9118 YYZZ=           -289.8706
 XXYZ=             36.0781 YYXZ=            -18.0363 ZZXY=            -20.3764
 N-N= 9.128254809340D+02 E-N=-3.029987640461D+03  KE= 5.224602273289D+02
 Calling FoFJK, ICntrl=      2127 FMM=F ISym2X=0 I1Cent= 0 IOpClX= 0 NMat=1 NMatS=1 NMatT=0.
 ***** Axes restored to original set *****
 -------------------------------------------------------------------
 Center     Atomic                   Forces (Hartrees/Bohr)
 Number     Number              X              Y              Z
 -------------------------------------------------------------------
      1        6          -0.001506983    0.005387004   -0.001355366
      2        6          -0.004638883    0.009319252   -0.009771511
      3        6          -0.013165439   -0.009690953   -0.005854888
      4        6          -0.002176934    0.010054650   -0.001264731
      5        6           0.012197760    0.003375484    0.009032255
      6        6           0.016519655    0.007171045   -0.004342410
      7        6          -0.009272982    0.013009050    0.004142697
      8        6          -0.003619545   -0.002404713   -0.001450519
      9        6           0.001209137   -0.004817897   -0.007616906
     10        6          -0.001877984   -0.005441503   -0.002992719
     11        6          -0.005130410   -0.007675384   -0.002158017
     12        6          -0.009954818   -0.010176427   -0.024169502
     13        7           0.007849690    0.004329418    0.015905775
     14        1           0.001657760   -0.001433453   -0.000919282
     15        1           0.001429414   -0.002918618    0.000226354
     16        1           0.000260390   -0.000211242    0.005584336
     17        1           0.003832790   -0.003611094   -0.000822435
     18        1           0.008381824    0.004666043    0.002093580
     19        1          -0.001168003    0.006609327    0.003816245
     20        1          -0.003564372   -0.007271530    0.001575024
     21        1           0.002903596   -0.002633479   -0.003135103
     22        1          -0.006519403   -0.005409394   -0.001750369
     23        1           0.000394996   -0.008617889   -0.007530656
     24        1          -0.004482103    0.001079797    0.006858148
     25        1          -0.004749756   -0.003401065    0.001559409
     26        1          -0.001012145   -0.000972804    0.003527747
     27        1           0.001491556   -0.005175628   -0.001265590
     28        1           0.000869299   -0.002140877    0.000464435
     29        1           0.001907432   -0.002631310   -0.001674922
     30        1          -0.002207246    0.009251612    0.001752377
     31        1          -0.000575416    0.001735655    0.010252405
     32        1           0.005987832    0.001126873    0.000296685
     33        1          -0.002919642    0.003422629    0.003939982
     34        1           0.004236982   -0.001191954   -0.002399519
     35        1           0.008845436    0.002768140    0.002842214
     36        1          -0.003005369    0.000094892   -0.002345217
     37        1          -0.000706015    0.001283746    0.003160641
     38        1           0.000694085    0.003054163    0.002468246
     39        1           0.001583814    0.000088435    0.003321106
 -------------------------------------------------------------------
 Cartesian Forces:  Max     0.024169502 RMS     0.005853853

 GradGradGradGradGradGradGradGradGradGradGradGradGradGradGradGradGradGrad
 Berny optimization.
 FormGI is forming the generalized inverse of G from B-inverse, IUseBI=4.
 Internal  Forces:  Max     0.027960393 RMS     0.003268461
 Search for a local minimum.
[...]
    32  H   -0.000001  -0.029722   0.000086   0.375719   0.004894  -0.039281
    33  H   -0.000279  -0.034229   0.001951   0.374654  -0.008515  -0.035966
    34  H    0.001131   0.000188  -0.039380   0.004723   0.373434  -0.032459
    35  H   -0.006567   0.001874  -0.037905  -0.006047   0.394358  -0.030904
    36  H   -0.000101  -0.001745   0.004036  -0.041694  -0.036747   0.395676
    37  H   -0.000046  -0.000097   0.002364  -0.002360  -0.001230  -0.018517
    38  H   -0.000000  -0.000078   0.000213   0.000634   0.003303  -0.014889
    39  H   -0.000071  -0.000082   0.000733   0.003772  -0.001340  -0.018032
              13         14         15         16         17         18
     1  C   -0.000000   0.383378   0.387047  -0.031457  -0.037803  -0.045266
     2  C   -0.000000  -0.030339  -0.038700   0.382175   0.381086  -0.006938
     3  C    0.000003  -0.035314  -0.050791   0.004580  -0.004674   0.381679
     4  C    0.000001   0.004773  -0.006172  -0.038337  -0.033888   0.003653
     5  C    0.000000  -0.001384  -0.007674  -0.000129   0.000036  -0.049025
     6  C   -0.000068  -0.000111   0.004858  -0.006646   0.004990  -0.000855
     7  C   -0.000033  -0.000057   0.000324   0.000002   0.000002  -0.007769
     8  C    0.002623   0.000111  -0.004101  -0.000114  -0.000090   0.001127
     9  C   -0.006549  -0.000002  -0.000022   0.000000   0.000000  -0.000357
    10  C   -0.045732  -0.000006   0.000117   0.000000   0.000001  -0.001243
    11  C   -0.044933  -0.000000  -0.000057   0.000000  -0.000000   0.000841
    12  C    0.127368  -0.000000   0.000006   0.000000   0.000000  -0.000220
    13  N    6.581840  -0.000000  -0.000000   0.000000   0.000000   0.000006
    14  H   -0.000000   0.607864  -0.034782  -0.002677  -0.005756   0.005996
    15  H   -0.000000  -0.034782   0.641785  -0.004749   0.005964  -0.001714
    16  H    0.000000  -0.002677  -0.004749   0.617626  -0.035665   0.000139
    17  H    0.000000  -0.005756   0.005964  -0.035665   0.624659  -0.000505
    18  H    0.000006   0.005996  -0.001714   0.000139  -0.000505   0.686782
    19  H   -0.000000  -0.009230   0.005624  -0.000103   0.002810  -0.038279
    20  H   -0.000000  -0.000141  -0.000060  -0.004453  -0.003377  -0.000190
    21  H    0.000010  -0.000066   0.000066   0.005894  -0.004378   0.001701
    22  H    0.000000   0.001963  -0.000182   0.000003  -0.000002   0.005727
    23  H   -0.000003  -0.000253   0.006965  -0.000010   0.000009  -0.001643
    24  H    0.000001  -0.000060   0.000770   0.004240   0.000087  -0.000021
    25  H   -0.000002   0.000002  -0.000086   0.000033  -0.000200   0.000016
    26  H    0.000001  -0.000003   0.000009  -0.000000  -0.000000  -0.000309
    27  H   -0.000002   0.000003  -0.000008  -0.000000  -0.000000   0.000083
    28  H    0.000018  -0.000035   0.002851   0.000019  -0.000064  -0.000855
    29  H    0.000002  -0.000002   0.000217  -0.000003   0.000004   0.000003
    30  H   -0.001429   0.000001   0.000019  -0.000001   0.000001   0.001018
    31  H    0.001741   0.000000  -0.000000   0.000000  -0.000000  -0.000028
    32  H   -0.001874   0.000000  -0.000004   0.000000  -0.000001   0.000087
    33  H   -0.005269  -0.000003   0.000044   0.000006   0.000019   0.000453
    34  H   -0.004419   0.000000   0.000000  -0.000000  -0.000000  -0.000011
    35  H    0.003835   0.000003  -0.000109   0.000000  -0.000000  -0.000237
    36  H   -0.042309  -0.000000   0.000000  -0.000000   0.000000  -0.000011
    37  H    0.324772  -0.000000  -0.000000  -0.000000  -0.000000  -0.000048
    38  H    0.331689   0.000000   0.000000  -0.000000  -0.000000  -0.000001
    39  H    0.325137   0.000000  -0.000000   0.000000  -0.000000  -0.000002
              19         20         21         22         23         24
     1  C   -0.033494   0.004612  -0.006355  -0.000773  -0.006866  -0.000521
     2  C   -0.000179  -0.030767  -0.039708  -0.000078   0.000291  -0.005382
     3  C    0.385311   0.000217   0.001021  -0.032626  -0.051927   0.000081
     4  C   -0.000387   0.382219   0.376254  -0.000000  -0.000016  -0.036296
     5  C   -0.035320  -0.000002  -0.000115   0.386098   0.383735   0.000000
     6  C    0.000073  -0.032613  -0.044568  -0.000001   0.000019   0.383729
     7  C   -0.000638  -0.000000   0.000021  -0.029654  -0.043985   0.000000
     8  C   -0.000024   0.004668  -0.008747   0.000020  -0.000784  -0.031393
     9  C   -0.000415  -0.000000  -0.000037   0.004722  -0.007654  -0.000000
    10  C    0.000020   0.000274  -0.000543  -0.000003   0.000098   0.004527
    11  C    0.000021   0.000000   0.000019   0.000213  -0.000302   0.000002
    12  C    0.000001  -0.000002  -0.000088   0.000002  -0.000286  -0.000131
    13  N   -0.000000  -0.000000   0.000010   0.000000  -0.000003   0.000001
    14  H   -0.009230  -0.000141  -0.000066   0.001963  -0.000253  -0.000060
    15  H    0.005624  -0.000060   0.000066  -0.000182   0.006965   0.000770
    16  H   -0.000103  -0.004453   0.005894   0.000003  -0.000010   0.004240
    17  H    0.002810  -0.003377  -0.004378  -0.000002   0.000009   0.000087
    18  H   -0.038279  -0.000190   0.001701   0.005727  -0.001643  -0.000021
    19  H    0.606566  -0.000018   0.000312  -0.008693   0.005833   0.000001
    20  H   -0.000018   0.608405  -0.036900   0.000000  -0.000000  -0.000523
    21  H    0.000312  -0.036900   0.665360  -0.000001   0.000015   0.005217
    22  H   -0.008693   0.000000  -0.000001   0.583480  -0.030326  -0.000000
    23  H    0.005833  -0.000000   0.000015  -0.030326   0.647748  -0.000000
    24  H    0.000001  -0.000523   0.005217  -0.000000  -0.000000   0.597244
    25  H    0.000000  -0.008767   0.000054   0.000000   0.000000  -0.036161
    26  H    0.003307  -0.000000   0.000001  -0.004029   0.006171   0.000000
    27  H   -0.000099   0.000000  -0.000000  -0.002933  -0.003351  -0.000000
    28  H    0.000043  -0.000022   0.000178  -0.000034   0.001488  -0.003080
    29  H   -0.000001  -0.000154   0.000022  -0.000000  -0.000004  -0.004411
    30  H    0.000287   0.000002  -0.000180  -0.000032   0.000095  -0.000000
    31  H   -0.000028   0.000000   0.000000  -0.000128  -0.000117  -0.000000
    32  H   -0.000001  -0.000048   0.000430   0.000000  -0.000002   0.000003
    33  H   -0.000018  -0.000344   0.004471  -0.000001   0.000021   0.000068
    34  H    0.000000   0.000000   0.000000  -0.000008   0.000053  -0.000000
    35  H    0.000025  -0.000000   0.000008  -0.000347   0.007066   0.000005
    36  H    0.000000   0.000000  -0.000005  -0.000000   0.000021  -0.000005
    37  H    0.000000   0.000000  -0.000010  -0.000000   0.000000  -0.000000
    38  H    0.000000  -0.000000  -0.000000  -0.000000   0.000000  -0.000000
    39  H   -0.000000   0.000000  -0.000000  -0.000000   0.000000  -0.000000
              25         26         27         28         29         30
     1  C   -0.000017   0.000031  -0.000119   0.000848  -0.000007  -0.000254
     2  C    0.004305   0.000003   0.000002   0.001597  -0.000050   0.000025
     3  C   -0.000024  -0.005335   0.004100  -0.000283   0.000037   0.002129
     4  C   -0.034430   0.000000   0.000000  -0.005189   0.003902  -0.000070
     5  C    0.000000  -0.038787  -0.027425   0.000492   0.000002  -0.005669
     6  C    0.381267   0.000000   0.000000  -0.036766  -0.028350   0.000013
     7  C    0.000000   0.381428   0.384895  -0.000160  -0.000001  -0.031581
     8  C   -0.043004  -0.000005   0.000001   0.388151   0.384997  -0.000043
     9  C   -0.000000  -0.035215  -0.040160  -0.000104   0.000033   0.385402
    10  C   -0.009217  -0.000004  -0.000008  -0.044157  -0.043665  -0.000929
    11  C   -0.000000   0.004943  -0.004614   0.002169  -0.000941  -0.061792
    12  C    0.000083  -0.000175   0.000047  -0.007018  -0.003149  -0.003142
    13  N   -0.000002   0.000001  -0.000002   0.000018   0.000002  -0.001429
    14  H    0.000002  -0.000003   0.000003  -0.000035  -0.000002   0.000001
    15  H   -0.000086   0.000009  -0.000008   0.002851   0.000217   0.000019
    16  H    0.000033  -0.000000  -0.000000   0.000019  -0.000003  -0.000001
    17  H   -0.000200  -0.000000  -0.000000  -0.000064   0.000004   0.000001
    18  H    0.000016  -0.000309   0.000083  -0.000855   0.000003   0.001018
    19  H    0.000000   0.003307  -0.000099   0.000043  -0.000001   0.000287
    20  H   -0.008767  -0.000000   0.000000  -0.000022  -0.000154   0.000002
    21  H    0.000054   0.000001  -0.000000   0.000178   0.000022  -0.000180
    22  H    0.000000  -0.004029  -0.002933  -0.000034  -0.000000  -0.000032
    23  H    0.000000   0.006171  -0.003351   0.001488  -0.000004   0.000095
    24  H   -0.036161   0.000000  -0.000000  -0.003080  -0.004411  -0.000000
    25  H    0.636248  -0.000000   0.000000   0.006018  -0.003288   0.000001
    26  H   -0.000000   0.611150  -0.034084   0.000006   0.000000  -0.005379
    27  H    0.000000  -0.034084   0.603773   0.000003  -0.000000   0.005376
    28  H    0.006018   0.000006   0.000003   0.607846  -0.035784  -0.000059
    29  H   -0.003288   0.000000  -0.000000  -0.035784   0.610988  -0.000003
    30  H    0.000001  -0.005379   0.005376  -0.000059  -0.000003   0.640782
    31  H   -0.000000  -0.003487  -0.003691  -0.000006   0.000001  -0.035423
    32  H    0.005139  -0.000000   0.000000   0.005539  -0.006125  -0.000191
    33  H   -0.000473   0.000020   0.000002  -0.005342   0.005831   0.005658
    34  H    0.000000  -0.000142   0.001442  -0.000030  -0.000049   0.005486
    35  H    0.000002   0.000294  -0.000077   0.003336   0.000445   0.000626
    36  H    0.000001   0.000002   0.000003  -0.000429   0.004372   0.000228
    37  H    0.000002   0.000001   0.000002   0.000014   0.000024   0.001737
    38  H    0.000000  -0.000000   0.000000   0.000006   0.000001  -0.000039
    39  H    0.000000   0.000001  -0.000001   0.000007   0.000000   0.000307
              31         32         33         34         35         36
     1  C   -0.000003  -0.000011  -0.000034  -0.000000  -0.000150   0.000000
     2  C   -0.000000   0.000016  -0.000145   0.000000   0.000002   0.000000
     3  C    0.000323   0.000022  -0.000258   0.000012  -0.000360  -0.000003
     4  C   -0.000000  -0.000325   0.003626  -0.000000   0.000011   0.000001
     5  C    0.003977  -0.000001  -0.000011  -0.000090   0.004074  -0.000006
     6  C    0.000000  -0.002305  -0.003642  -0.000001  -0.000081  -0.000035
     7  C   -0.026044  -0.000001  -0.000279   0.001131  -0.006567  -0.000101
     8  C   -0.000005  -0.029722  -0.034229   0.000188   0.001874  -0.001745
     9  C    0.375175   0.000086   0.001951  -0.039380  -0.037905   0.004036
    10  C    0.000121   0.375719   0.374654   0.004723  -0.006047  -0.041694
    11  C   -0.037701   0.004894  -0.008515   0.373434   0.394358  -0.036747
    12  C   -0.002466  -0.039281  -0.035966  -0.032459  -0.030904   0.395676
    13  N    0.001741  -0.001874  -0.005269  -0.004419   0.003835  -0.042309
    14  H    0.000000   0.000000  -0.000003   0.000000   0.000003  -0.000000
    15  H   -0.000000  -0.000004   0.000044   0.000000  -0.000109   0.000000
    16  H    0.000000   0.000000   0.000006  -0.000000   0.000000  -0.000000
    17  H   -0.000000  -0.000001   0.000019  -0.000000  -0.000000   0.000000
    18  H   -0.000028   0.000087   0.000453  -0.000011  -0.000237  -0.000011
    19  H   -0.000028  -0.000001  -0.000018   0.000000   0.000025   0.000000
    20  H    0.000000  -0.000048  -0.000344   0.000000  -0.000000   0.000000
    21  H    0.000000   0.000430   0.004471   0.000000   0.000008  -0.000005
    22  H   -0.000128   0.000000  -0.000001  -0.000008  -0.000347  -0.000000
    23  H   -0.000117  -0.000002   0.000021   0.000053   0.007066   0.000021
    24  H   -0.000000   0.000003   0.000068  -0.000000   0.000005  -0.000005
    25  H   -0.000000   0.005139  -0.000473   0.000000   0.000002   0.000001
    26  H   -0.003487  -0.000000   0.000020  -0.000142   0.000294   0.000002
    27  H   -0.003691   0.000000   0.000002   0.001442  -0.000077   0.000003
    28  H   -0.000006   0.005539  -0.005342  -0.000030   0.003336  -0.000429
    29  H    0.000001  -0.006125   0.005831  -0.000049   0.000445   0.004372
    30  H   -0.035423  -0.000191   0.005658   0.005486   0.000626   0.000228
    31  H    0.630572  -0.000007  -0.000065  -0.010135   0.004748  -0.000168
    32  H   -0.000007   0.611951  -0.039044  -0.000139   0.000077  -0.004921
    33  H   -0.000065  -0.039044   0.606266  -0.000040   0.000082   0.005425
    34  H   -0.010135  -0.000139  -0.000040   0.601527  -0.025441  -0.004492
    35  H    0.004748   0.000077   0.000082  -0.025441   0.528085  -0.001722
    36  H   -0.000168  -0.004921   0.005425  -0.004492  -0.001722   0.558694
    37  H   -0.000022   0.000182   0.006798  -0.000044  -0.000049   0.004321
    38  H    0.000028   0.001812  -0.000145  -0.000098  -0.000093  -0.005063
    39  H    0.001771   0.000009  -0.000101   0.004565   0.000007   0.000229
              37         38         39
     1  C    0.000000  -0.000000   0.000000
     2  C    0.000000   0.000000  -0.000000
     3  C   -0.000003   0.000000   0.000000
     4  C   -0.000003   0.000000   0.000000
     5  C    0.000002   0.000000   0.000003
     6  C   -0.000004   0.000000   0.000001
     7  C   -0.000046  -0.000000  -0.000071
     8  C   -0.000097  -0.000078  -0.000082
     9  C    0.002364   0.000213   0.000733
    10  C   -0.002360   0.000634   0.003772
    11  C   -0.001230   0.003303  -0.001340
    12  C   -0.018517  -0.014889  -0.018032
    13  N    0.324772   0.331689   0.325137
    14  H   -0.000000   0.000000   0.000000
    15  H   -0.000000   0.000000  -0.000000
    16  H   -0.000000  -0.000000   0.000000
    17  H   -0.000000  -0.000000  -0.000000
    18  H   -0.000048  -0.000001  -0.000002
    19  H    0.000000   0.000000  -0.000000
    20  H    0.000000  -0.000000   0.000000
    21  H   -0.000010  -0.000000  -0.000000
    22  H   -0.000000  -0.000000  -0.000000
    23  H    0.000000   0.000000   0.000000
    24  H   -0.000000  -0.000000  -0.000000
    25  H    0.000002   0.000000   0.000000
    26  H    0.000001  -0.000000   0.000001
    27  H    0.000002   0.000000  -0.000001
    28  H    0.000014   0.000006   0.000007
    29  H    0.000024   0.000001   0.000000
    30  H    0.001737  -0.000039   0.000307
    31  H   -0.000022   0.000028   0.001771
    32  H    0.000182   0.001812   0.000009
    33  H    0.006798  -0.000145  -0.000101
    34  H   -0.000044  -0.000098   0.004565
    35  H   -0.000049  -0.000093   0.000007
    36  H    0.004321  -0.005063   0.000229
    37  H    0.352545  -0.015062  -0.015206
    38  H   -0.015062   0.348347  -0.014660
    39  H   -0.015206  -0.014660   0.353626
 Mulliken charges:
               1
     1  C   -0.190123
     2  C   -0.185194
     3  C   -0.175346
     4  C   -0.190428
     5  C   -0.189542
     6  C   -0.190444
     7  C   -0.191638
     8  C   -0.190465
     9  C   -0.213530
    10  C   -0.191773
    11  C   -0.209734
    12  C   -0.022287
    13  N   -0.546425
    14  H    0.116124
    15  H    0.092547
    16  H    0.109626
    17  H    0.106735
    18  H    0.066215
    19  H    0.116690
    20  H    0.117986
    21  H    0.080648
    22  H    0.127622
    23  H    0.087901
    24  H    0.122012
    25  H    0.102499
    26  H    0.119586
    27  H    0.116842
    28  H    0.118787
    29  H    0.115108
    30  H    0.097020
    31  H    0.101069
    32  H    0.118038
    33  H    0.118526
    34  H    0.124419
    35  H    0.161128
    36  H    0.166445
    37  H    0.359936
    38  H    0.364092
    39  H    0.359326
 Sum of Mulliken charges =   1.00000
 Mulliken charges with hydrogens summed into heavy atoms:
               1
     1  C    0.018548
     2  C    0.031167
     3  C    0.007559
     4  C    0.008206
     5  C    0.025982
     6  C    0.034068
     7  C    0.044791
     8  C    0.043430
     9  C   -0.015441
    10  C    0.044791
    11  C    0.075813
    12  C    0.144158
    13  N    0.536929
 Electronic spatial extent (au):  <R**2>=           3013.9861
 Charge=              1.0000 electrons
 Dipole moment (field-independent basis, Debye):
    X=             11.0686    Y=             -4.4293    Z=             -1.9239  Tot=             12.0762
 Quadrupole moment (field-independent basis, Debye-Ang):
   XX=            -35.2636   YY=            -67.4671   ZZ=            -77.9244
   XY=            -15.3080   XZ=             -7.6170   YZ=              2.8102
 Traceless Quadrupole moment (field-independent basis, Debye-Ang):
   XX=             24.9548   YY=             -7.2487   ZZ=            -17.7061
   XY=            -15.3080   XZ=             -7.6170   YZ=              2.8102
 Octapole moment (field-independent basis, Debye-Ang**2):
  XXX=            160.2200  YYY=            -16.9394  ZZZ=             -7.0988  XYY=             32.6625
  XXY=            -58.3154  XXZ=            -29.2054  XZZ=             18.1686  YZZ=             -9.0158
  YYZ=             -5.3642  XYZ=             12.3422
 Hexadecapole moment (field-independent basis, Debye-Ang**3):
 XXXX=          -1539.4604 YYYY=          -1387.8718 ZZZZ=           -323.6751 XXXY=           -215.6382
 XXXZ=           -107.9713 YYYX=            -86.4239 YYYZ=             13.7372 ZZZX=            -25.2621
 ZZZY=              6.3180 XXYY=           -478.9175 XXZZ=           -374.6075 YYZZ=           -291.8731
 XXYZ=             39.1338 YYXZ=            -19.4727 ZZXY=            -21.3461
 N-N= 9.077061369327D+02 E-N=-3.019652858308D+03  KE= 5.221706225539D+02
 1\1\GINC-CPU198\FOpt\RB3LYP\6-31G(d,p)\C12H26N1(1+)\FEBRERMA\05-Feb-20
 24\0\\# B3LYP/6-31G** opt=Modredundant\\G8\\1,1\C,7.5882195973,38.8283
 657901,27.545045522\C,8.2557234224,40.1078274935,27.0037905333\C,7.488
 7884828,38.7666211764,29.0795966698\C,9.6828481494,40.413332778,27.511
 1666697\C,7.2000728161,37.3420955299,29.602149876\C,10.7701769933,39.3
 648043833,27.1960101545\C,7.5312104541,37.1492183046,31.0971976957\C,1
 0.902402982,38.1576870234,28.1507687182\C,8.9788038836,37.4870152504,3
 1.5118837199\C,11.3442985058,38.5412221745,29.5760019341\C,10.07299321
 47,36.6316395471,30.7985358425\C,11.4028958369,37.3442011889,30.536332
 502\N,11.9848464705,37.8395065973,31.8892060517\H,6.5729928772,38.7766
 753642,27.1346336836\H,8.1172680119,37.9500758082,27.1537106411\H,8.27
 08165204,40.0654180484,25.9074780882\H,7.6160621475,40.9676467791,27.2
 421762173\H,8.3980019318,39.1520868657,29.5455562747\H,6.6605584304,39
 .4147175443,29.392578324\H,10.0002102296,41.3621454687,27.0636949973\H
 ,9.6365456776,40.6390982401,28.584694757\H,6.1473634874,37.1002705148,
 29.4298787906\H,7.8102171229,36.6361143321,29.0212053264\H,10.67288094
 23,38.9950600086,26.1686710817\H,11.7379951854,39.8871227736,27.185121
 8771\H,6.8863981697,37.8430181273,31.6542249531\H,7.2469154888,36.1500
 972615,31.4459360892\H,9.9426458652,37.6388891678,28.1940301091\H,11.6
 267979599,37.4461726541,27.7350824968\H,9.1725645995,38.5424782045,31.
 2959064686\H,9.0679558101,37.3457994447,32.5962954418\H,12.3285969332,
 39.0275681991,29.5252224439\H,10.6469002318,39.2900523279,29.969420517
 5\H,10.2433899481,35.7295854514,31.4016493959\H,9.66494399,36.26435919
 36,29.8558587786\H,12.1420685937,36.6184334523,30.1832857054\H,11.6831
 759325,38.7993509732,32.0862948351\H,13.0090898468,37.8293494965,31.88
 23754037\H,11.6758632575,37.2471800609,32.6671284128\\Version=ES64L-G1
 6RevA.03\State=1-A\HF=-527.500738\RMSD=4.484e-09\RMSF=3.463e-03\Dipole
 =3.3344251,-0.775957,3.2943796\Quadrupole=6.6224167,-12.4170211,5.7946
 045,-3.1840008,16.8654919,-5.3715444\PG=C01 [X(C12H26N1)]\\@


 The mind is not a vessel to be filled but a fire to be kindled.
                                  -- Plutarch
 Job cpu time:       0 days  0 hours 37 minutes  1.6 seconds.
 Elapsed time:       0 days  0 hours  4 minutes 40.5 seconds.
 File lengths (MBytes):  RWF=     72 Int=      0 D2E=      0 Chk=     10 Scr=      1
 Normal termination of Gaussian 16 at Mon Feb  5 15:27:03 2024.
