 Entering Gaussian System, Link 0=g16
 Initial command:
 /opt/ebsofts/Gaussian/g16/l1.exe "/scratch/Gau-2534027.inp" -scrdir="/scratch/"
 Entering Link 1 = /opt/ebsofts/Gaussian/g16/l1.exe PID=   2534031.
  
 Copyright (c) 1988,1990,1992,1993,1995,1998,2003,2009,2016,
            Gaussian, Inc.  All Rights Reserved.
  
 This is part of the Gaussian(R) 16 program.  It is based on
 the Gaussian(R) 09 system (copyright 2009, Gaussian, Inc.),
 the Gaussian(R) 03 system (copyright 2003, Gaussian, Inc.),
 the Gaussian(R) 98 system (copyright 1998, Gaussian, Inc.),
 the Gaussian(R) 94 system (copyright 1995, Gaussian, Inc.),
 the Gaussian 92(TM) system (copyright 1992, Gaussian, Inc.),
 the Gaussian 90(TM) system (copyright 1990, Gaussian, Inc.),
 the Gaussian 88(TM) system (copyright 1988, Gaussian, Inc.),
 the Gaussian 86(TM) system (copyright 1986, Carnegie Mellon
 University), and the Gaussian 82(TM) system (copyright 1983,
 Carnegie Mellon University). Gaussian is a federally registered
 trademark of Gaussian, Inc.
  
 This software contains proprietary and confidential information,
 including trade secrets, belonging to Gaussian, Inc.
  
 This software is provided under written license and may be
 used, copied, transmitted, or stored only in accord with that
 written license.
  
 The following legend is applicable only to US Government
 contracts under FAR:
  
                    RESTRICTED RIGHTS LEGEND
  
 Use, reproduction and disclosure by the US Government is
 subject to restrictions as set forth in subparagraphs (a)
 and (c) of the Commercial Computer Software - Restricted
 Rights clause in FAR 52.227-19.
  
 Gaussian, Inc.
 340 Quinnipiac St., Bldg. 40, Wallingford CT 06492
  
  
 ---------------------------------------------------------------
 Warning -- This program may not be used in any manner that
 competes with the business of Gaussian, Inc. or will provide
 assistance to any competitor of Gaussian, Inc.  The licensee
 of this program is prohibited from giving any competitor of
 Gaussian, Inc. access to this program.  By using this program,
 the user acknowledges that Gaussian, Inc. is engaged in the
 business of creating and licensing software in the field of
 computational chemistry and represents and warrants to the
 licensee that it is not a competitor of Gaussian, Inc. and that
 it will not use this program in any manner prohibited above.
 ---------------------------------------------------------------
  

 Cite this work as:
 Gaussian 16, Revision A.03,
 M. J. Frisch, G. W. Trucks, H. B. Schlegel, G. E. Scuseria, 
 M. A. Robb, J. R. Cheeseman, G. Scalmani, V. Barone, 
 G. A. Petersson, H. Nakatsuji, X. Li, M. Caricato, A. V. Marenich, 
 J. Bloino, B. G. Janesko, R. Gomperts, B. Mennucci, H. P. Hratchian, 
 J. V. Ortiz, A. F. Izmaylov, J. L. Sonnenberg, D. Williams-Young, 
 F. Ding, F. Lipparini, F. Egidi, J. Goings, B. Peng, A. Petrone, 
 T. Henderson, D. Ranasinghe, V. G. Zakrzewski, J. Gao, N. Rega, 
 G. Zheng, W. Liang, M. Hada, M. Ehara, K. Toyota, R. Fukuda, 
 J. Hasegawa, M. Ishida, T. Nakajima, Y. Honda, O. Kitao, H. Nakai, 
 T. Vreven, K. Throssell, J. A. Montgomery, Jr., J. E. Peralta, 
 F. Ogliaro, M. J. Bearpark, J. J. Heyd, E. N. Brothers, K. N. Kudin, 
 V. N. Staroverov, T. A. Keith, R. Kobayashi, J. Normand, 
 K. Raghavachari, A. P. Rendell, J. C. Burant, S. S. Iyengar, 
 J. Tomasi, M. Cossi, J. M. Millam, M. Klene, C. Adamo, R. Cammi, 
 J. W. Ochterski, R. L. Martin, K. Morokuma, O. Farkas, 
 J. B. Foresman, and D. J. Fox, Gaussian, Inc., Wallingford CT, 2016.
 
 ******************************************
 Gaussian 16:  ES64L-G16RevA.03 25-Dec-2016
                 5-Feb-2024 
 ******************************************
 %Chk=G8.chk
 %nprocshared=8
 Will use up to    8 processors via shared memory.
 %mem=1GB
 ----------------------------------------------------------------------
 # HF/6-31G** SCRF=(Solvent=Water) POP=MK iop(6/50=1) geom=allcheck gue
 ss=read
 ----------------------------------------------------------------------
 1/29=7,38=1,172=1/1;
 2/12=2,40=1/2;
 3/5=1,6=6,7=101,11=9,14=-4,25=1,30=1,70=2201,72=1,116=-2/1,2,3;
 4/5=1/1;
 5/5=2,38=6,53=1/2;
 6/7=2,8=2,9=2,10=2,15=8,20=1,28=1,50=1/1,2;
 99/5=1,9=1/99;
 Structure from the checkpoint file:  "G8.chk"
 --
 G8
 --
 Charge =  1 Multiplicity = 1
 Redundant internal coordinates found in file.  (old form).
 C,0,7.5882195973,38.8283657901,27.545045522
 C,0,8.2557234224,40.1078274935,27.0037905333
 C,0,7.4887884828,38.7666211764,29.0795966698
 C,0,9.6828481494,40.413332778,27.5111666697
 C,0,7.2000728161,37.3420955299,29.602149876
 C,0,10.7701769933,39.3648043833,27.1960101545
 C,0,7.5312104541,37.1492183046,31.0971976957
 C,0,10.902402982,38.1576870234,28.1507687182
 C,0,8.9788038836,37.4870152504,31.5118837199
 C,0,11.3442985058,38.5412221745,29.5760019341
 C,0,10.0729932147,36.6316395471,30.7985358425
 C,0,11.4028958369,37.3442011889,30.536332502
 N,0,11.9848464705,37.8395065973,31.8892060517
 H,0,6.5729928772,38.7766753642,27.1346336836
 H,0,8.1172680119,37.9500758082,27.1537106411
 H,0,8.2708165204,40.0654180484,25.9074780882
 H,0,7.6160621475,40.9676467791,27.2421762173
 H,0,8.3980019318,39.1520868657,29.5455562747
 H,0,6.6605584304,39.4147175443,29.392578324
 H,0,10.0002102296,41.3621454687,27.0636949973
 H,0,9.6365456776,40.6390982401,28.584694757
 H,0,6.1473634874,37.1002705148,29.4298787906
 H,0,7.8102171229,36.6361143321,29.0212053264
 H,0,10.6728809423,38.9950600086,26.1686710817
 H,0,11.7379951854,39.8871227736,27.1851218771
 H,0,6.8863981697,37.8430181273,31.6542249531
 H,0,7.2469154888,36.1500972615,31.4459360892
 H,0,9.9426458652,37.6388891678,28.1940301091
 H,0,11.6267979599,37.4461726541,27.7350824968
 H,0,9.1725645995,38.5424782045,31.2959064686
 H,0,9.0679558101,37.3457994447,32.5962954418
 H,0,12.3285969332,39.0275681991,29.5252224439
 H,0,10.6469002318,39.2900523279,29.9694205175
 H,0,10.2433899481,35.7295854514,31.4016493959
 H,0,9.66494399,36.2643591936,29.8558587786
 H,0,12.1420685937,36.6184334523,30.1832857054
 H,0,11.6831759325,38.7993509732,32.0862948351
 H,0,13.0090898468,37.8293494965,31.8823754037
 H,0,11.6758632575,37.2471800609,32.6671284128
 Recover connectivity data from disk.
                           ----------------------------
                           !    Current Parameters    !
                           ! (Angstroms and Degrees)  !
 --------------------------                            --------------------------
 ! Name  Definition              Value                                          !
 --------------------------------------------------------------------------------
 ! R1    R(1,2)                  1.5413                                         !
 ! R2    R(1,3)                  1.539                                          !
 ! R3    R(1,14)                 1.0963                                         !
 ! R4    R(1,15)                 1.0975                                         !
 ! R5    R(2,4)                  1.5451                                         !
 ! R6    R(2,16)                 1.0972                                         !
 ! R7    R(2,17)                 1.0979                                         !
 ! R8    R(3,5)                  1.5446                                         !
 ! R9    R(3,18)                 1.092                                          !
 ! R10   R(3,19)                 1.0972                                         !
 ! R11   R(4,6)                  1.5431                                         !
 ! R12   R(4,20)                 1.096                                          !
 ! R13   R(4,21)                 1.098                                          !
 ! R14   R(5,7)                  1.5434                                         !
 ! R15   R(5,22)                 1.0938                                         !
 ! R16   R(5,23)                 1.0992                                         !
 ! R17   R(6,8)                  1.5447                                         !
 ! R18   R(6,24)                 1.0962                                         !
 ! R19   R(6,25)                 1.0998                                         !
 ! R20   R(7,9)                  1.5432                                         !
 ! R21   R(7,26)                 1.0988                                         !
 ! R22   R(7,27)                 1.0958                                         !
 ! R23   R(8,10)                 1.5407                                         !
 ! R24   R(8,28)                 1.0919                                         !
 ! R25   R(8,29)                 1.0972                                         !
 ! R26   R(9,11)                 1.5613                                         !
 ! R27   R(9,30)                 1.0946                                         !
 ! R28   R(9,31)                 1.0972                                         !
 ! R29   R(10,12)                1.5357                                         !
 ! R30   R(10,32)                1.0991                                         !
 ! R31   R(10,33)                1.0963                                         !
 ! R32   R(11,12)                1.5314                                         !
 ! R33   R(11,34)                1.0984                                         !
 ! R34   R(11,35)                1.0909                                         !
 ! R35   R(12,13)                1.5538                                         !
 ! R36   R(12,36)                1.0944                                         !
 ! R37   R(13,37)                1.0253                                         !
 ! R38   R(13,38)                1.0243                                         !
 ! R39   R(13,39)                1.0254                                         !
 ! A1    A(2,1,3)              114.2954                                         !
 ! A2    A(2,1,14)             107.9835                                         !
 ! A3    A(2,1,15)             109.2899                                         !
 ! A4    A(3,1,14)             108.1536                                         !
 ! A5    A(3,1,15)             110.7681                                         !
 ! A6    A(14,1,15)            105.9739                                         !
 ! A7    A(1,2,4)              116.6684                                         !
 ! A8    A(1,2,16)             108.9504                                         !
 ! A9    A(1,2,17)             108.757                                          !
 ! A10   A(4,2,16)             108.8463                                         !
 ! A11   A(4,2,17)             108.1794                                         !
 ! A12   A(16,2,17)            104.7878                                         !
 ! A13   A(1,3,5)              112.7316                                         !
 ! A14   A(1,3,18)             110.9484                                         !
 ! A15   A(1,3,19)             108.0283                                         !
 ! A16   A(5,3,18)             109.6847                                         !
 ! A17   A(5,3,19)             107.8878                                         !
 ! A18   A(18,3,19)            107.3543                                         !
 ! A19   A(2,4,6)              116.7064                                         !
 ! A20   A(2,4,20)             107.7312                                         !
 ! A21   A(2,4,21)             108.8299                                         !
 ! A22   A(6,4,20)             107.5075                                         !
 ! A23   A(6,4,21)             111.6618                                         !
 ! A24   A(20,4,21)            103.4968                                         !
 ! A25   A(3,5,7)              113.758                                          !
 ! A26   A(3,5,22)             109.3008                                         !
 ! A27   A(3,5,23)             108.0469                                         !
 ! A28   A(7,5,22)             109.356                                          !
 ! A29   A(7,5,23)             108.2168                                         !
 ! A30   A(22,5,23)            107.9992                                         !
 ! A31   A(4,6,8)              117.7156                                         !
 ! A32   A(4,6,24)             110.9819                                         !
 ! A33   A(4,6,25)             107.4214                                         !
 ! A34   A(8,6,24)             108.8612                                         !
 ! A35   A(8,6,25)             107.5725                                         !
 ! A36   A(24,6,25)            103.2392                                         !
 ! A37   A(5,7,9)              115.7342                                         !
 ! A38   A(5,7,26)             106.6332                                         !
 ! A39   A(5,7,27)             111.5048                                         !
 ! A40   A(9,7,26)             106.0231                                         !
 ! A41   A(9,7,27)             110.9426                                         !
 ! A42   A(26,7,27)            105.1964                                         !
 ! A43   A(6,8,10)             113.6898                                         !
 ! A44   A(6,8,28)             108.6963                                         !
 ! A45   A(6,8,29)             109.2147                                         !
 ! A46   A(10,8,28)            109.4965                                         !
 ! A47   A(10,8,29)            108.8172                                         !
 ! A48   A(28,8,29)            106.6924                                         !
 ! A49   A(7,9,11)             114.4992                                         !
 ! A50   A(7,9,30)             108.9098                                         !
 ! A51   A(7,9,31)             108.2779                                         !
 ! A52   A(11,9,30)            108.3037                                         !
 ! A53   A(11,9,31)            108.9113                                         !
 ! A54   A(30,9,31)            107.7418                                         !
 ! A55   A(8,10,12)            113.2894                                         !
 ! A56   A(8,10,32)            108.9224                                         !
 ! A57   A(8,10,33)            108.6359                                         !
 ! A58   A(12,10,32)           109.8541                                         !
 ! A59   A(12,10,33)           109.4063                                         !
 ! A60   A(32,10,33)           106.501                                          !
 ! A61   A(9,11,12)            115.5888                                         !
 ! A62   A(9,11,34)            107.9247                                         !
 ! A63   A(9,11,35)            108.4889                                         !
 ! A64   A(12,11,34)           109.9635                                         !
 ! A65   A(12,11,35)           109.4838                                         !
 ! A66   A(34,11,35)           104.8337                                         !
 ! A67   A(10,12,11)           115.8877                                         !
 ! A68   A(10,12,13)           108.0765                                         !
 ! A69   A(10,12,36)           109.9339                                         !
 ! A70   A(11,12,13)           108.9357                                         !
 ! A71   A(11,12,36)           109.4634                                         !
 ! A72   A(13,12,36)           103.8457                                         !
 ! A73   A(12,13,37)           110.8307                                         !
 ! A74   A(12,13,38)           111.441                                          !
 ! A75   A(12,13,39)           111.3182                                         !
 ! A76   A(37,13,38)           107.7451                                         !
 ! A77   A(37,13,39)           107.8359                                         !
 ! A78   A(38,13,39)           107.4956                                         !
 ! D1    D(3,1,2,4)             56.9259         Frozen                          !
 ! D2    D(3,1,2,16)          -179.3871         Frozen                          !
 ! D3    D(3,1,2,17)           -65.7086         Frozen                          !
 ! D4    D(14,1,2,4)           177.319          Frozen                          !
 ! D5    D(14,1,2,16)          -58.994          Frozen                          !
 ! D6    D(14,1,2,17)           54.6845         Frozen                          !
 ! D7    D(15,1,2,4)           -67.8366         Frozen                          !
 ! D8    D(15,1,2,16)           55.8503         Frozen                          !
 ! D9    D(15,1,2,17)          169.5289         Frozen                          !
 ! D10   D(2,1,3,5)           -163.5876         Frozen                          !
 ! D11   D(2,1,3,18)           -40.1211         Frozen                          !
 ! D12   D(2,1,3,19)            77.2968         Frozen                          !
 ! D13   D(14,1,3,5)            76.1142         Frozen                          !
 ! D14   D(14,1,3,18)         -160.4194         Frozen                          !
 ! D15   D(14,1,3,19)          -43.0014         Frozen                          !
 ! D16   D(15,1,3,5)           -39.6129         Frozen                          !
 ! D17   D(15,1,3,18)           83.8535         Frozen                          !
 ! D18   D(15,1,3,19)         -158.7285         Frozen                          !
 ! D19   D(1,2,4,6)             60.8458         Frozen                          !
 ! D20   D(1,2,4,20)          -178.1962         Frozen                          !
 ! D21   D(1,2,4,21)           -66.6087         Frozen                          !
 ! D22   D(16,2,4,6)           -62.8945         Frozen                          !
 ! D23   D(16,2,4,20)           58.0634         Frozen                          !
 ! D24   D(16,2,4,21)          169.6509         Frozen                          !
 ! D25   D(17,2,4,6)          -176.2202         Frozen                          !
 ! D26   D(17,2,4,20)          -55.2622         Frozen                          !
 ! D27   D(17,2,4,21)           56.3253         Frozen                          !
 ! D28   D(1,3,5,7)            161.6751         Frozen                          !
 ! D29   D(1,3,5,22)           -75.788          Frozen                          !
 ! D30   D(1,3,5,23)            41.4994         Frozen                          !
 ! D31   D(18,3,5,7)            37.5101         Frozen                          !
 ! D32   D(18,3,5,22)          160.0471         Frozen                          !
 ! D33   D(18,3,5,23)          -82.6656         Frozen                          !
 ! D34   D(19,3,5,7)           -79.1278         Frozen                          !
 ! D35   D(19,3,5,22)           43.4092         Frozen                          !
 ! D36   D(19,3,5,23)          160.6965         Frozen                          !
 ! D37   D(2,4,6,8)            -84.0843         Frozen                          !
 ! D38   D(2,4,6,24)            42.2562         Frozen                          !
 ! D39   D(2,4,6,25)           154.4298         Frozen                          !
 ! D40   D(20,4,6,8)           154.8396         Frozen                          !
 ! D41   D(20,4,6,24)          -78.8199         Frozen                          !
 ! D42   D(20,4,6,25)           33.3536         Frozen                          !
 ! D43   D(21,4,6,8)            41.9715         Frozen                          !
 ! D44   D(21,4,6,24)          168.3121         Frozen                          !
 ! D45   D(21,4,6,25)          -79.5144         Frozen                          !
 ! D46   D(3,5,7,9)            -55.9841         Frozen                          !
 ! D47   D(3,5,7,26)            61.648          Frozen                          !
 ! D48   D(3,5,7,27)           175.963          Frozen                          !
 ! D49   D(22,5,7,9)          -178.4908         Frozen                          !
 ! D50   D(22,5,7,26)          -60.8586         Frozen                          !
 ! D51   D(22,5,7,27)           53.4564         Frozen                          !
 ! D52   D(23,5,7,9)            64.0957         Frozen                          !
 ! D53   D(23,5,7,26)         -178.2722         Frozen                          !
 ! D54   D(23,5,7,27)          -63.9572         Frozen                          !
 ! D55   D(4,6,8,10)           -64.9808         Frozen                          !
 ! D56   D(4,6,8,28)            57.2441         Frozen                          !
 ! D57   D(4,6,8,29)           173.2885         Frozen                          !
 ! D58   D(24,6,8,10)          167.6532         Frozen                          !
 ! D59   D(24,6,8,28)          -70.1219         Frozen                          !
 ! D60   D(24,6,8,29)           45.9225         Frozen                          !
 ! D61   D(25,6,8,10)           56.4273         Frozen                          !
 ! D62   D(25,6,8,28)          178.6522         Frozen                          !
 ! D63   D(25,6,8,29)          -65.3034         Frozen                          !
 ! D64   D(5,7,9,11)           -60.4875         Frozen                          !
 ! D65   D(5,7,9,30)            60.9069         Frozen                          !
 ! D66   D(5,7,9,31)           177.8031         Frozen                          !
 ! D67   D(26,7,9,11)         -178.4586         Frozen                          !
 ! D68   D(26,7,9,30)          -57.0642         Frozen                          !
 ! D69   D(26,7,9,31)           59.832          Frozen                          !
 ! D70   D(27,7,9,11)           67.8429         Frozen                          !
 ! D71   D(27,7,9,30)         -170.7627         Frozen                          !
 ! D72   D(27,7,9,31)          -53.8666         Frozen                          !
 ! D73   D(6,8,10,12)          177.0308         Frozen                          !
 ! D74   D(6,8,10,32)          -60.3917         Frozen                          !
 ! D75   D(6,8,10,33)           55.2334         Frozen                          !
 ! D76   D(28,8,10,12)          55.2492         Frozen                          !
 ! D77   D(28,8,10,32)         177.8267         Frozen                          !
 ! D78   D(28,8,10,33)         -66.5482         Frozen                          !
 ! D79   D(29,8,10,12)         -61.0179         Frozen                          !
 ! D80   D(29,8,10,32)          61.5596         Frozen                          !
 ! D81   D(29,8,10,33)         177.1846         Frozen                          !
 ! D82   D(7,9,11,12)          147.391          Frozen                          !
 ! D83   D(7,9,11,34)          -89.0521         Frozen                          !
 ! D84   D(7,9,11,35)           24.0194         Frozen                          !
 ! D85   D(30,9,11,12)          25.6644         Frozen                          !
 ! D86   D(30,9,11,34)         149.2213         Frozen                          !
 ! D87   D(30,9,11,35)         -97.7072         Frozen                          !
 ! D88   D(31,9,11,12)         -91.2468         Frozen                          !
 ! D89   D(31,9,11,34)          32.3101         Frozen                          !
 ! D90   D(31,9,11,35)         145.3816         Frozen                          !
 ! D91   D(8,10,12,11)         -62.6886         Frozen                          !
 ! D92   D(8,10,12,13)         174.7752         Frozen                          !
 ! D93   D(8,10,12,36)          62.0602         Frozen                          !
 ! D94   D(32,10,12,11)        175.2522         Frozen                          !
 ! D95   D(32,10,12,13)         52.716          Frozen                          !
 ! D96   D(32,10,12,36)        -59.999          Frozen                          !
 ! D97   D(33,10,12,11)         58.6768         Frozen                          !
 ! D98   D(33,10,12,13)        -63.8594         Frozen                          !
 ! D99   D(33,10,12,36)       -176.5745         Frozen                          !
 ! D100  D(9,11,12,10)         -63.9268         Frozen                          !
 ! D101  D(9,11,12,13)          58.1547         Frozen                          !
 ! D102  D(9,11,12,36)         171.0827         Frozen                          !
 ! D103  D(34,11,12,10)        173.5933         Frozen                          !
 ! D104  D(34,11,12,13)        -64.3253         Frozen                          !
 ! D105  D(34,11,12,36)         48.6028         Frozen                          !
 ! D106  D(35,11,12,10)         58.9199         Frozen                          !
 ! D107  D(35,11,12,13)       -178.9986         Frozen                          !
 ! D108  D(35,11,12,36)        -66.0706         Frozen                          !
 ! D109  D(10,12,13,37)         34.633          Frozen                          !
 ! D110  D(10,12,13,38)        -85.3515         Frozen                          !
 ! D111  D(10,12,13,39)        154.6506         Frozen                          !
 ! D112  D(11,12,13,37)        -92.0602         Frozen                          !
 ! D113  D(11,12,13,38)        147.9553         Frozen                          !
 ! D114  D(11,12,13,39)         27.9574         Frozen                          !
 ! D115  D(36,12,13,37)        151.365          Frozen                          !
 ! D116  D(36,12,13,38)         31.3804         Frozen                          !
 ! D117  D(36,12,13,39)        -88.6175         Frozen                          !
 --------------------------------------------------------------------------------
                          Input orientation:                          
 ---------------------------------------------------------------------
 Center     Atomic      Atomic             Coordinates (Angstroms)
 Number     Number       Type             X           Y           Z
 ---------------------------------------------------------------------
      1          6           0        7.588220   38.828366   27.545046
      2          6           0        8.255723   40.107827   27.003791
      3          6           0        7.488788   38.766621   29.079597
      4          6           0        9.682848   40.413333   27.511167
      5          6           0        7.200073   37.342096   29.602150
      6          6           0       10.770177   39.364804   27.196010
      7          6           0        7.531210   37.149218   31.097198
      8          6           0       10.902403   38.157687   28.150769
      9          6           0        8.978804   37.487015   31.511884
     10          6           0       11.344299   38.541222   29.576002
     11          6           0       10.072993   36.631640   30.798536
     12          6           0       11.402896   37.344201   30.536333
     13          7           0       11.984846   37.839507   31.889206
     14          1           0        6.572993   38.776675   27.134634
     15          1           0        8.117268   37.950076   27.153711
     16          1           0        8.270817   40.065418   25.907478
     17          1           0        7.616062   40.967647   27.242176
     18          1           0        8.398002   39.152087   29.545556
     19          1           0        6.660558   39.414718   29.392578
     20          1           0       10.000210   41.362145   27.063695
     21          1           0        9.636546   40.639098   28.584695
     22          1           0        6.147363   37.100271   29.429879
     23          1           0        7.810217   36.636114   29.021205
     24          1           0       10.672881   38.995060   26.168671
     25          1           0       11.737995   39.887123   27.185122
     26          1           0        6.886398   37.843018   31.654225
     27          1           0        7.246915   36.150097   31.445936
     28          1           0        9.942646   37.638889   28.194030
     29          1           0       11.626798   37.446173   27.735082
     30          1           0        9.172565   38.542478   31.295906
     31          1           0        9.067956   37.345799   32.596295
     32          1           0       12.328597   39.027568   29.525222
     33          1           0       10.646900   39.290052   29.969421
     34          1           0       10.243390   35.729585   31.401649
     35          1           0        9.664944   36.264359   29.855859
     36          1           0       12.142069   36.618433   30.183286
     37          1           0       11.683176   38.799351   32.086295
     38          1           0       13.009090   37.829349   31.882375
     39          1           0       11.675863   37.247180   32.667128
 ---------------------------------------------------------------------
                    Distance matrix (angstroms):
                    1          2          3          4          5
     1  C    0.000000
     2  C    1.541279   0.000000
     3  C    1.539008   2.587662   0.000000
     4  C    2.626925   1.545137   3.159989   0.000000
     5  C    2.567360   3.938927   1.544569   4.468656   0.000000
     6  C    3.245681   2.628975   3.830565   1.543055   4.756732
     7  C    3.929449   5.102379   2.586215   5.305055   1.543380
     8  C    3.435189   3.481884   3.589747   2.642791   4.059427
     9  C    4.412341   5.264447   3.126269   5.006471   2.613804
    10  C    4.279645   4.313910   3.893864   3.244805   4.314301
    11  C    4.645956   5.457696   3.767096   5.025954   3.192140
    12  C    5.069743   5.479158   4.411983   4.640017   4.305395
    13  N    6.259385   6.551254   5.382191   5.575931   5.326547
    14  H    1.096264   2.149574   2.149806   3.534349   2.922308
    15  H    1.097465   2.167381   2.184209   2.940485   2.684351
    16  H    2.162837   1.097236   3.515790   2.164878   4.713128
    17  H    2.160793   1.097854   2.869987   2.156670   4.345934
    18  H    2.182335   2.719238   1.091958   2.716673   2.171245
    19  H    2.148893   2.954871   1.097247   3.697456   2.151920
    20  H    3.531209   2.149450   4.136163   1.095990   5.517728
    21  H    2.924938   2.165220   2.892051   1.097987   4.223960
    22  H    2.935128   4.401873   2.167682   5.211285   1.093780
    23  H    2.652225   4.039954   2.155408   4.478208   1.099173
    24  H    3.381912   2.788965   4.320199   2.189511   5.155722
    25  H    4.297807   3.493967   4.785427   2.146353   5.736892
    26  H    4.283552   5.350790   2.800826   5.620639   2.135492
    27  H    4.744108   6.034400   3.536137   6.292166   2.196042
    28  H    2.716498   3.218390   2.842081   2.869030   3.097191
    29  H    4.272784   4.356987   4.546914   3.554310   4.805483
    30  H    4.081769   4.659740   2.792377   4.252616   2.863643
    31  H    5.468341   6.290042   4.108488   5.970460   3.529010
    32  H    5.141202   4.910486   4.867281   3.602326   5.398935
    33  H    3.930175   3.896337   3.322565   2.869524   3.976184
    34  H    5.614781   6.516209   4.712042   6.114536   3.885893
    35  H    4.028247   4.989233   3.405811   4.765699   2.702124
    36  H    5.708034   6.114633   5.242695   5.252547   5.028392
    37  H    6.114937   6.268285   5.160832   5.247671   5.328488
    38  H    7.014007   7.182377   6.261611   6.070282   6.259515
    39  H    6.741269   7.207916   5.719325   6.370288   5.425477
                    6          7          8          9         10
     6  C    0.000000
     7  C    5.533443   0.000000
     8  C    1.544726   4.589487   0.000000
     9  C    5.036057   1.543243   3.930283   0.000000
    10  C    2.583073   4.334899   1.540669   3.233350   0.000000
    11  C    4.575418   2.611081   3.166609   1.561340   2.599483
    12  C    3.954861   3.916955   2.569663   2.616929   1.535750
    13  N    5.082130   4.575877   3.904976   3.050068   2.500724
    14  H    4.238634   4.389614   4.489930   5.158630   5.364800
    15  H    3.006854   4.066439   2.965502   4.466581   4.078072
    16  H    2.897926   5.998702   3.949309   6.209571   5.022702
    17  H    3.538315   5.426674   4.418309   5.674704   5.023348
    18  H    3.345569   2.677760   3.034187   2.641257   3.009111
    19  H    4.660082   2.965847   4.595156   3.685343   4.768025
    20  H    2.144698   6.333550   3.502033   5.987177   4.009472
    21  H    2.199407   4.787940   2.819235   4.351630   2.881006
    22  H    5.611478   2.167344   5.036333   3.535728   5.394982
    23  H    4.420232   2.156586   3.554498   2.879775   4.053019
    24  H    1.096177   6.129241   2.163928   5.804655   3.502381
    25  H    1.099821   6.363764   2.149799   5.665203   2.771778
    26  H    6.105346   1.098827   5.338681   2.127243   4.967834
    27  H    6.388238   1.095758   5.315180   2.188866   5.099282
    28  H    2.158619   3.805677   1.091859   3.458354   2.165336
    29  H    2.169227   5.307150   1.097176   4.612783   2.160538
    30  H    4.476353   2.162106   3.610027   1.094619   2.770289
    31  H    6.011407   2.155812   4.877199   1.097196   3.966478
    32  H    2.822699   5.386485   2.163295   4.188226   1.099070
    33  H    2.777155   3.944943   2.157551   2.900462   1.096307
    34  H    5.583881   3.076356   4.110742   2.167923   3.528497
    35  H    4.231914   2.622349   2.832548   2.169814   2.843001
    36  H    4.283510   4.730431   2.834995   3.539188   2.168490
    37  H    5.006814   4.576032   4.063214   3.060360   2.546181
    38  H    5.415937   5.575504   4.297770   4.061731   2.932175
    39  H    5.936138   4.433106   4.671699   2.943848   3.367424
                   11         12         13         14         15
    11  C    0.000000
    12  C    1.531384   0.000000
    13  N    2.510714   1.553789   0.000000
    14  H    5.502305   6.078775   7.264462   0.000000
    15  H    4.341415   4.754426   6.115170   1.751690   0.000000
    16  H    6.241884   6.216207   7.384428   2.459547   2.459948
    17  H    6.122513   6.190390   7.103972   2.428974   3.060191
    18  H    3.275394   3.644101   4.481185   3.046989   2.691573
    19  H    4.622440   5.299526   6.087896   2.347995   3.046261
    20  H    6.027605   5.492778   6.295500   4.293659   3.898178
    21  H    4.599055   4.217254   4.926665   3.867383   3.403933
    22  H    4.183707   5.376278   6.377379   2.873960   3.127880
    23  H    2.877339   3.962870   5.205873   3.109964   2.303977
    24  H    5.232711   4.725963   5.981729   4.217802   2.931459
    25  H    5.140736   4.220113   5.136348   5.283265   4.106434
    26  H    3.514830   4.679450   5.103862   4.625651   4.667026
    27  H    2.939001   4.418760   5.049612   5.093173   4.735043
    28  H    2.795531   2.775888   4.226719   3.710989   2.123936
    29  H    3.530229   2.812033   4.188037   5.260392   3.592870
    30  H    2.170128   2.643331   2.958902   4.912109   4.315365
    31  H    2.179923   3.113743   3.041706   6.172681   5.557939
    32  H    3.528392   2.170942   2.667972   6.237374   4.951803
    33  H    2.843231   2.163159   2.753136   4.989619   4.015320
    34  H    1.098400   2.167997   2.778876   6.400312   5.243659
    35  H    1.090889   2.156288   3.463746   4.824620   3.540981
    36  H    2.158652   1.094421   2.103783   6.705736   5.210625
    37  H    2.991652   2.144388   1.025256   7.115717   6.145515
    38  H    3.351101   2.151060   1.024317   8.053684   6.804761
    39  H    2.537660   2.150399   1.025419   7.680309   6.599654
                   16         17         18         19         20
    16  H    0.000000
    17  H    1.739005   0.000000
    18  H    3.753127   3.035333   0.000000
    19  H    3.893875   2.819363   1.763827   0.000000
    20  H    2.451355   2.423148   3.689318   4.513252   0.000000
    21  H    3.059708   2.447990   2.160659   3.317873   1.722930
    22  H    5.070351   4.679713   3.047738   2.370955   6.213440
    23  H    4.654844   4.686663   2.636390   3.029896   5.564466
    24  H    2.642688   3.793106   4.074688   5.164148   2.618520
    25  H    3.699391   4.261586   4.155416   5.556653   2.282615
    26  H    6.315123   5.455446   2.906044   2.763383   6.569098
    27  H    6.859492   6.404424   3.734754   3.901005   7.345074
    28  H    3.729796   4.171288   2.549964   3.919462   3.891479
    29  H    4.632839   5.360013   4.075915   5.593389   4.293180
    30  H    5.671654   4.973618   2.008805   3.270112   5.152391
    31  H    7.264436   6.625131   3.608119   4.509965   6.899986
    32  H    5.534509   5.584281   3.932619   5.682793   4.114700
    33  H    4.769313   4.408873   2.292649   4.029790   3.626985
    34  H    7.271617   7.186192   4.308602   5.518446   7.113559
    35  H    5.655206   5.757618   3.168659   4.377867   5.822028
    36  H    6.719436   6.931848   4.565538   6.204142   6.068130
    37  H    7.171116   6.686435   4.167990   5.732493   5.884454
    38  H    7.946737   7.775931   5.335962   7.001167   6.689819
    39  H    8.076489   7.730069   4.910932   6.369786   7.151169
                   21         22         23         24         25
    21  H    0.000000
    22  H    5.041035   0.000000
    23  H    4.421527   1.774130   0.000000
    24  H    3.100649   5.891181   4.679361   0.000000
    25  H    2.634457   6.637819   5.419197   1.721458   0.000000
    26  H    4.980300   2.458772   3.040206   6.764315   6.905740
    27  H    5.835080   2.485222   2.536305   6.905112   7.231161
    28  H    3.040982   4.027605   2.497404   2.544508   3.048890
    29  H    3.857165   5.745971   4.108113   2.400553   2.504608
    30  H    3.458578   3.835865   3.265651   5.361373   5.028723
    31  H    5.221307   4.314666   3.855753   6.827166   6.547384
    32  H    3.275479   6.475432   5.137007   3.742845   2.561975
    33  H    2.181331   5.033099   3.998659   3.812269   3.049475
    34  H    5.692698   4.748062   3.522590   6.183191   6.107214
    35  H    4.555766   3.640547   2.067573   4.697661   4.955279
    36  H    4.999888   6.061046   4.485051   4.891216   4.453829
    37  H    4.453602   6.370921   5.392048   6.006436   5.020732
    38  H    5.490304   7.323222   6.052965   6.281972   5.283399
    39  H    5.685964   6.408251   5.348773   6.803749   6.084863
                   26         27         28         29         30
    26  H    0.000000
    27  H    1.743370   0.000000
    28  H    4.621176   4.478656   0.000000
    29  H    6.163486   5.885033   1.756172   0.000000
    30  H    2.417477   3.074755   3.321315   4.461459   0.000000
    31  H    2.427739   2.463578   4.497880   5.494464   1.770309
    32  H    5.962662   6.147558   3.064843   2.489565   3.651188
    33  H    4.367362   4.857912   2.524743   3.058163   2.119457
    34  H    3.974894   3.026161   3.744958   4.278341   3.011680
    35  H    3.666961   2.896250   2.174425   3.121417   2.739708
    36  H    5.593330   5.077022   3.136228   2.635214   3.709155
    37  H    4.910227   5.206631   4.418805   4.557117   2.644592
    38  H    6.126956   6.017726   4.800338   4.388348   3.946064
    39  H    4.931528   4.723397   4.813116   4.936303   3.134414
                   31         32         33         34         35
    31  H    0.000000
    32  H    4.784518   0.000000
    33  H    3.629553   1.759066   0.000000
    34  H    2.328298   4.329637   3.858889   0.000000
    35  H    3.005978   3.852232   3.183073   1.734950   0.000000
    36  H    3.975154   2.504350   3.069009   2.424756   2.523633
    37  H    3.035175   2.650989   2.407449   3.459073   3.933737
    38  H    4.034357   2.730379   3.372386   3.505596   4.211802
    39  H    2.610733   3.669798   3.536908   2.440596   3.593462
                   36         37         38         39
    36  H    0.000000
    37  H    2.930602   0.000000
    38  H    2.259413   1.655456   0.000000
    39  H    2.604255   1.657304   1.652952   0.000000
 Stoichiometry    C12H26N(1+)
 Framework group  C1[X(C12H26N)]
 Deg. of freedom   111
 Full point group                 C1      NOp   1
 Largest Abelian subgroup         C1      NOp   1
 Largest concise Abelian subgroup C1      NOp   1
                         Standard orientation:                         
 ---------------------------------------------------------------------
 Center     Atomic      Atomic             Coordinates (Angstroms)
 Number     Number       Type             X           Y           Z
 ---------------------------------------------------------------------
      1          6           0       -2.492549    0.998434    0.343203
      2          6           0       -3.207641   -0.156571   -0.384909
      3          6           0       -1.295097    1.586013   -0.424524
      4          6           0       -2.340441   -1.375949   -0.770308
      5          6           0       -0.370315    2.437392    0.473042
      6          6           0       -1.663707   -2.139322    0.387411
      7          6           0        1.036057    2.663997   -0.120917
      8          6           0       -0.316638   -1.597574    0.914758
      9          6           0        1.824323    1.387514   -0.482619
     10          6           0        0.824829   -1.665752   -0.117745
     11          6           0        2.103513    0.435532    0.723021
     12          6           0        2.140724   -1.058943    0.390912
     13          7           0        3.234425   -1.309521   -0.683932
     14          1           0       -3.222247    1.800658    0.503747
     15          1           0       -2.187414    0.663240    1.342686
     16          1           0       -4.048234   -0.499943    0.231067
     17          1           0       -3.672046    0.236071   -1.298935
     18          1           0       -0.714823    0.796415   -0.906383
     19          1           0       -1.685967    2.235500   -1.217833
     20          1           0       -2.982124   -2.086780   -1.303371
     21          1           0       -1.612616   -1.066651   -1.532005
     22          1           0       -0.843142    3.404912    0.664598
     23          1           0       -0.257378    1.918115    1.435216
     24          1           0       -2.351596   -2.261527    1.232087
     25          1           0       -1.496200   -3.171822    0.047572
     26          1           0        0.895017    3.210704   -1.063594
     27          1           0        1.636111    3.329295    0.509954
     28          1           0       -0.456742   -0.563281    1.235331
     29          1           0       -0.022492   -2.166521    1.805586
     30          1           0        1.265828    0.828357   -1.239994
     31          1           0        2.781243    1.688385   -0.927163
     32          1           0        0.983798   -2.714761   -0.404561
     33          1           0        0.507886   -1.139301   -1.025647
     34          1           0        3.053211    0.741377    1.182383
     35          1           0        1.350209    0.619085    1.490406
     36          1           0        2.496923   -1.617356    1.262149
     37          1           0        2.835570   -1.264424   -1.627346
     38          1           0        3.665926   -2.231646   -0.571162
     39          1           0        3.981978   -0.610091   -0.625222
 ---------------------------------------------------------------------
 Rotational constants (GHZ):           0.8769450           0.5934708           0.3970901
 Standard basis: 6-31G(d,p) (6D, 7F)
 There are   325 symmetry adapted cartesian basis functions of A   symmetry.
 There are   325 symmetry adapted basis functions of A   symmetry.
   325 basis functions,   546 primitive gaussians,   325 cartesian basis functions
    52 alpha electrons       52 beta electrons
       nuclear repulsion energy       907.7061369327 Hartrees.
 NAtoms=   39 NActive=   39 NUniq=   39 SFac= 1.00D+00 NAtFMM=   60 NAOKFM=F Big=F
 Integral buffers will be    131072 words long.
 Raffenetti 1 integral format.
 Two-electron integral symmetry is turned on.
 ------------------------------------------------------------------------------
 Polarizable Continuum Model (PCM)
 =================================
 Model                : PCM.
 Atomic radii         : UFF (Universal Force Field).
 Polarization charges : Total charges.
 Charge compensation  : None.
 Solution method      : On-the-fly selection.
 Cavity type          : Scaled VdW (van der Waals Surface) (Alpha=1.100).
 Cavity algorithm     : GePol (No added spheres)
                        Default sphere list used, NSphG=   39.
                        Lebedev-Laikov grids with approx.  5.0 points / Ang**2.
                        Smoothing algorithm: York/Karplus (Gamma=1.0000).
                        Polarization charges: spherical gaussians, with
                                              point-specific exponents (IZeta= 3).
                        Self-potential: point-specific (ISelfS= 7).
                        Self-field    : sphere-specific E.n sum rule (ISelfD= 2).
 Solvent              : Water, Eps=  78.355300 Eps(inf)=   1.777849
 ------------------------------------------------------------------------------
 One-electron integrals computed using PRISM.
 NBasis=   325 RedAO= T EigKep=  2.81D-03  NBF=   325
 NBsUse=   325 1.00D-06 EigRej= -1.00D+00 NBFU=   325
 Initial guess from the checkpoint file:  "G8.chk"
 B after Tr=    -0.000000    0.000000   -0.000000
         Rot=    1.000000    0.000000    0.000000    0.000000 Ang=   0.00 deg.
 Requested convergence on RMS density matrix=1.00D-08 within 128 cycles.
 Requested convergence on MAX density matrix=1.00D-06.
 Requested convergence on             energy=1.00D-06.
 No special actions if energy rises.
 Inv3:  Mode=1 IEnd=    14665563.
 Iteration    1 A*A^-1 deviation from unit magnitude is 5.88D-15 for   2207.
 Iteration    1 A*A^-1 deviation from orthogonality  is 2.25D-15 for   2209    809.
 Iteration    1 A^-1*A deviation from unit magnitude is 5.88D-15 for   2207.
 Iteration    1 A^-1*A deviation from orthogonality  is 1.69D-15 for   2061   1151.
 Error on total polarization charges =  0.00946
 SCF Done:  E(RHF) =  -523.915841044     A.U. after   10 cycles
            NFock= 10  Conv=0.98D-08     -V/T= 2.0019

 **********************************************************************

            Population analysis using the SCF density.

 **********************************************************************

 Orbital symmetries:
       Occupied  (A) (A) (A) (A) (A) (A) (A) (A) (A) (A) (A) (A)
                 (A) (A) (A) (A) (A) (A) (A) (A) (A) (A) (A) (A)
                 (A) (A) (A) (A) (A) (A) (A) (A) (A) (A) (A) (A)
                 (A) (A) (A) (A) (A) (A) (A) (A) (A) (A) (A) (A)
                 (A) (A) (A) (A)
       Virtual   (A) (A) (A) (A) (A) (A) (A) (A) (A) (A) (A) (A)
                 (A) (A) (A) (A) (A) (A) (A) (A) (A) (A) (A) (A)
                 (A) (A) (A) (A) (A) (A) (A) (A) (A) (A) (A) (A)
                 (A) (A) (A) (A) (A) (A) (A) (A) (A) (A) (A) (A)
                 (A) (A) (A) (A) (A) (A) (A) (A) (A) (A) (A) (A)
                 (A) (A) (A) (A) (A) (A) (A) (A) (A) (A) (A) (A)
                 (A) (A) (A) (A) (A) (A) (A) (A) (A) (A) (A) (A)
                 (A) (A) (A) (A) (A) (A) (A) (A) (A) (A) (A) (A)
                 (A) (A) (A) (A) (A) (A) (A) (A) (A) (A) (A) (A)
                 (A) (A) (A) (A) (A) (A) (A) (A) (A) (A) (A) (A)
                 (A) (A) (A) (A) (A) (A) (A) (A) (A) (A) (A) (A)
                 (A) (A) (A) (A) (A) (A) (A) (A) (A) (A) (A) (A)
                 (A) (A) (A) (A) (A) (A) (A) (A) (A) (A) (A) (A)
                 (A) (A) (A) (A) (A) (A) (A) (A) (A) (A) (A) (A)
                 (A) (A) (A) (A) (A) (A) (A) (A) (A) (A) (A) (A)
                 (A) (A) (A) (A) (A) (A) (A) (A) (A) (A) (A) (A)
                 (A) (A) (A) (A) (A) (A) (A) (A) (A) (A) (A) (A)
                 (A) (A) (A) (A) (A) (A) (A) (A) (A) (A) (A) (A)
                 (A) (A) (A) (A) (A) (A) (A) (A) (A) (A) (A) (A)
                 (A) (A) (A) (A) (A) (A) (A) (A) (A) (A) (A) (A)
                 (A) (A) (A) (A) (A) (A) (A) (A) (A) (A) (A) (A)
                 (A) (A) (A) (A) (A) (A) (A) (A) (A) (A) (A) (A)
                 (A) (A) (A) (A) (A) (A) (A) (A) (A)
 The electronic state is 1-A.
 Alpha  occ. eigenvalues --  -15.70614 -11.31782 -11.24761 -11.24527 -11.23489
 Alpha  occ. eigenvalues --  -11.23215 -11.22542 -11.22459 -11.22114 -11.22019
 Alpha  occ. eigenvalues --  -11.21806 -11.21756 -11.21703  -1.31554  -1.11572
 Alpha  occ. eigenvalues --   -1.08252  -1.08120  -1.01362  -1.01245  -0.92862
 Alpha  occ. eigenvalues --   -0.92481  -0.85916  -0.84054  -0.79854  -0.77483
 Alpha  occ. eigenvalues --   -0.76839  -0.75887  -0.74929  -0.67439  -0.66612
 Alpha  occ. eigenvalues --   -0.64338  -0.62455  -0.61865  -0.60922  -0.58640
 Alpha  occ. eigenvalues --   -0.58103  -0.56510  -0.54570  -0.54026  -0.53174
 Alpha  occ. eigenvalues --   -0.52422  -0.51205  -0.50950  -0.48493  -0.48126
 Alpha  occ. eigenvalues --   -0.47104  -0.46545  -0.46067  -0.45247  -0.43973
 Alpha  occ. eigenvalues --   -0.43706  -0.43266
 Alpha virt. eigenvalues --    0.16793   0.21116   0.21480   0.22460   0.23212
 Alpha virt. eigenvalues --    0.24045   0.25013   0.26123   0.26540   0.28127
 Alpha virt. eigenvalues --    0.28956   0.29461   0.30044   0.31302   0.31572
 Alpha virt. eigenvalues --    0.31811   0.32718   0.32870   0.33472   0.34190
 Alpha virt. eigenvalues --    0.34937   0.35353   0.36309   0.36830   0.37670
 Alpha virt. eigenvalues --    0.38754   0.39459   0.40016   0.40879   0.41905
 Alpha virt. eigenvalues --    0.42560   0.43353   0.44354   0.45648   0.46224
 Alpha virt. eigenvalues --    0.46992   0.48818   0.50756   0.51887   0.67913
 Alpha virt. eigenvalues --    0.68663   0.69517   0.69980   0.71035   0.72062
 Alpha virt. eigenvalues --    0.72734   0.73409   0.75454   0.78277   0.80633
 Alpha virt. eigenvalues --    0.81843   0.83319   0.84324   0.86631   0.87464
 Alpha virt. eigenvalues --    0.89636   0.90381   0.90702   0.91148   0.93118
 Alpha virt. eigenvalues --    0.94078   0.95248   0.95469   0.97014   0.98642
 Alpha virt. eigenvalues --    1.00643   1.02306   1.02611   1.03071   1.04051
 Alpha virt. eigenvalues --    1.04360   1.05751   1.06874   1.07516   1.09063
 Alpha virt. eigenvalues --    1.09828   1.10250   1.11288   1.11565   1.12726
 Alpha virt. eigenvalues --    1.13802   1.14638   1.15201   1.15447   1.16085
 Alpha virt. eigenvalues --    1.17413   1.17806   1.18326   1.19003   1.20207
 Alpha virt. eigenvalues --    1.20774   1.21197   1.21437   1.22280   1.22747
 Alpha virt. eigenvalues --    1.24648   1.25336   1.26926   1.27237   1.29969
 Alpha virt. eigenvalues --    1.31873   1.33524   1.35957   1.37426   1.39841
 Alpha virt. eigenvalues --    1.43413   1.46856   1.50236   1.51407   1.58895
 Alpha virt. eigenvalues --    1.61556   1.62678   1.64294   1.67333   1.69770
 Alpha virt. eigenvalues --    1.70980   1.74633   1.78530   1.78740   1.83448
 Alpha virt. eigenvalues --    1.84526   1.85601   1.85881   1.89005   1.91176
 Alpha virt. eigenvalues --    1.93270   1.95781   1.98452   1.99578   2.01211
 Alpha virt. eigenvalues --    2.01937   2.03653   2.05531   2.07000   2.07527
 Alpha virt. eigenvalues --    2.08368   2.09846   2.11049   2.13169   2.14239
 Alpha virt. eigenvalues --    2.15270   2.16770   2.17379   2.18176   2.18687
 Alpha virt. eigenvalues --    2.20742   2.21691   2.22664   2.24339   2.26257
 Alpha virt. eigenvalues --    2.28212   2.28429   2.29919   2.31556   2.33808
 Alpha virt. eigenvalues --    2.36421   2.38950   2.42894   2.44326   2.44913
 Alpha virt. eigenvalues --    2.46368   2.47714   2.48344   2.49887   2.50183
 Alpha virt. eigenvalues --    2.50721   2.51731   2.52482   2.53866   2.54817
 Alpha virt. eigenvalues --    2.55161   2.55438   2.56944   2.57900   2.58673
 Alpha virt. eigenvalues --    2.59493   2.60220   2.60906   2.61439   2.62653
 Alpha virt. eigenvalues --    2.64954   2.65625   2.66810   2.67541   2.69471
 Alpha virt. eigenvalues --    2.70472   2.70781   2.72849   2.73277   2.75736
 Alpha virt. eigenvalues --    2.76569   2.79408   2.82842   2.83962   2.84882
 Alpha virt. eigenvalues --    2.88258   2.88850   2.90684   2.90971   2.91926
 Alpha virt. eigenvalues --    2.94150   2.95968   2.96167   2.99709   3.00641
 Alpha virt. eigenvalues --    3.00955   3.02312   3.03715   3.04583   3.06605
 Alpha virt. eigenvalues --    3.08636   3.09466   3.10124   3.11237   3.13499
 Alpha virt. eigenvalues --    3.14353   3.14680   3.16353   3.18922   3.19978
 Alpha virt. eigenvalues --    3.20780   3.21744   3.22733   3.23186   3.23679
 Alpha virt. eigenvalues --    3.24467   3.24735   3.25553   3.26247   3.27053
 Alpha virt. eigenvalues --    3.27781   3.28390   3.29785   3.30232   3.51280
 Alpha virt. eigenvalues --    3.60910   3.62703   3.63076   3.65408   3.66440
 Alpha virt. eigenvalues --    3.67906   3.69318   3.70558   3.72158   3.73811
 Alpha virt. eigenvalues --    3.74273   3.74713   3.76225   3.77292   3.78895
 Alpha virt. eigenvalues --    3.80686   3.81850   3.84551   3.87332   3.89066
 Alpha virt. eigenvalues --    3.91305   3.94109   3.94150   3.97339   3.98234
 Alpha virt. eigenvalues --    4.48811   4.65639   4.70762   4.73949   4.89526
 Alpha virt. eigenvalues --    4.90321   5.04164   5.05939   5.06852   5.08799
 Alpha virt. eigenvalues --    5.11622   5.19283   5.21384
          Condensed to atoms (all electrons):
               1          2          3          4          5          6
     1  C    4.990536   0.342478   0.339168  -0.049410  -0.048825  -0.000626
     2  C    0.342478   4.968560  -0.053020   0.341493   0.003752  -0.048798
     3  C    0.339168  -0.053020   5.006196  -0.003739   0.337988  -0.000024
     4  C   -0.049410   0.341493  -0.003739   4.998391   0.000006   0.326620
     5  C   -0.048825   0.003752   0.337988   0.000006   4.989343  -0.000005
     6  C   -0.000626  -0.048798  -0.000024   0.326620  -0.000005   4.986205
     7  C    0.003775  -0.000099  -0.051780   0.000005   0.346433   0.000000
     8  C   -0.001923   0.000275  -0.000162  -0.044971  -0.000209   0.344340
     9  C    0.000044   0.000007  -0.004423  -0.000007  -0.050707  -0.000021
    10  C    0.000284   0.000119  -0.000581  -0.003384   0.000297  -0.048327
    11  C   -0.000037  -0.000001   0.000307   0.000011  -0.005529  -0.000003
    12  C    0.000003  -0.000008   0.000004   0.000015  -0.000046   0.003513
    13  N    0.000000  -0.000000   0.000001   0.000001  -0.000001  -0.000048
    14  H    0.411643  -0.038172  -0.040764   0.004044  -0.001110  -0.000137
    15  H    0.412012  -0.040720  -0.046109  -0.003472  -0.006028   0.002672
    16  H   -0.041050   0.410115   0.004464  -0.041384  -0.000087  -0.003747
    17  H   -0.041572   0.409578  -0.003147  -0.042697  -0.000066   0.004329
    18  H   -0.043417  -0.004807   0.414433  -0.000827  -0.045946  -0.000173
    19  H   -0.039024  -0.000466   0.407306   0.000055  -0.038862   0.000024
    20  H    0.004150  -0.040214   0.000053   0.417975   0.000001  -0.040984
    21  H   -0.003785  -0.040776  -0.000318   0.407816   0.000023  -0.040530
    22  H   -0.000878  -0.000091  -0.037954  -0.000003   0.411438  -0.000000
    23  H   -0.006239   0.000071  -0.051739   0.000018   0.410164   0.000003
    24  H   -0.000040  -0.004172   0.000056  -0.038270   0.000001   0.411055
    25  H   -0.000085   0.003927  -0.000026  -0.042747   0.000000   0.412833
    26  H   -0.000068   0.000001  -0.004425   0.000000  -0.044533  -0.000000
    27  H   -0.000077   0.000001   0.004023  -0.000000  -0.035761   0.000000
    28  H   -0.003923   0.001607  -0.002735  -0.002809  -0.000176  -0.040748
    29  H    0.000037  -0.000110   0.000023   0.003494  -0.000005  -0.035878
    30  H    0.000035   0.000011  -0.001104   0.000010  -0.003091   0.000011
    31  H    0.000000  -0.000000   0.000110  -0.000000   0.003568   0.000000
    32  H   -0.000010   0.000010   0.000011   0.000249  -0.000002  -0.002793
    33  H    0.000126   0.000003  -0.000660   0.000531   0.000078  -0.003532
    34  H    0.000000   0.000000  -0.000006  -0.000000   0.000104   0.000001
    35  H    0.000012  -0.000003   0.000168   0.000006  -0.000564   0.000035
    36  H    0.000000   0.000000  -0.000001  -0.000002  -0.000001  -0.000090
    37  H    0.000000   0.000000  -0.000000  -0.000002   0.000001  -0.000006
    38  H   -0.000000  -0.000000  -0.000000   0.000000   0.000000   0.000000
    39  H    0.000000  -0.000000  -0.000000  -0.000000   0.000001   0.000001
               7          8          9         10         11         12
     1  C    0.003775  -0.001923   0.000044   0.000284  -0.000037   0.000003
     2  C   -0.000099   0.000275   0.000007   0.000119  -0.000001  -0.000008
     3  C   -0.051780  -0.000162  -0.004423  -0.000581   0.000307   0.000004
     4  C    0.000005  -0.044971  -0.000007  -0.003384   0.000011   0.000015
     5  C    0.346433  -0.000209  -0.050707   0.000297  -0.005529  -0.000046
     6  C    0.000000   0.344340  -0.000021  -0.048327  -0.000003   0.003513
     7  C    4.954224   0.000015   0.346693   0.000057  -0.043021   0.002990
     8  C    0.000015   4.967142   0.000397   0.334747  -0.002016  -0.044210
     9  C    0.346693   0.000397   5.048154  -0.005848   0.296087  -0.042192
    10  C    0.000057   0.334747  -0.005848   5.046529  -0.053650   0.337309
    11  C   -0.043021  -0.002016   0.296087  -0.053650   5.074909   0.341732
    12  C    0.002990  -0.044210  -0.042192   0.337309   0.341732   5.034787
    13  N   -0.000115   0.002732  -0.006577  -0.059867  -0.051505   0.150941
    14  H   -0.000081   0.000072  -0.000005  -0.000005   0.000001  -0.000000
    15  H    0.000061  -0.004266   0.000012   0.000124  -0.000011   0.000004
    16  H    0.000001   0.000155  -0.000000  -0.000003  -0.000000   0.000000
    17  H    0.000001  -0.000149   0.000000   0.000002  -0.000000  -0.000000
    18  H   -0.004666  -0.000440  -0.003469  -0.001391   0.000595   0.000075
    19  H   -0.001033  -0.000015   0.000113   0.000008   0.000003   0.000000
    20  H   -0.000000   0.003977   0.000000   0.000037  -0.000000   0.000001
    21  H    0.000008  -0.004435   0.000001  -0.000736   0.000005   0.000039
    22  H   -0.035541   0.000008   0.003882  -0.000002   0.000066   0.000003
    23  H   -0.044755  -0.000421  -0.004224   0.000067  -0.000804  -0.000041
    24  H    0.000000  -0.038882  -0.000000   0.004347   0.000002  -0.000070
    25  H    0.000000  -0.045053   0.000000  -0.006202  -0.000004  -0.000072
    26  H    0.411813  -0.000002  -0.046713   0.000003   0.004751  -0.000109
    27  H    0.410436   0.000001  -0.038393  -0.000007  -0.003071  -0.000020
    28  H   -0.000030   0.411440   0.000191  -0.046027  -0.001155  -0.004905
    29  H    0.000001   0.415512   0.000009  -0.044149   0.000025  -0.002863
    30  H   -0.037366   0.000144   0.414728  -0.002383  -0.056694  -0.002037
    31  H   -0.034250  -0.000012   0.413458   0.000223  -0.038276  -0.001334
    32  H    0.000002  -0.033002  -0.000022   0.411181   0.003646  -0.039200
    33  H   -0.000044  -0.037216   0.000401   0.404911  -0.004241  -0.039461
    34  H    0.000589   0.000059  -0.040315   0.003632   0.410976  -0.036986
    35  H   -0.005649  -0.001080  -0.038943  -0.003489   0.417921  -0.035185
    36  H   -0.000061  -0.001825   0.003500  -0.036836  -0.038544   0.428554
    37  H   -0.000016   0.000000   0.000833  -0.002872  -0.000489  -0.016973
    38  H    0.000001  -0.000056   0.000055  -0.000004   0.002487  -0.015869
    39  H   -0.000039  -0.000053  -0.000275   0.003036  -0.001979  -0.019929
              13         14         15         16         17         18
     1  C    0.000000   0.411643   0.412012  -0.041050  -0.041572  -0.043417
     2  C   -0.000000  -0.038172  -0.040720   0.410115   0.409578  -0.004807
     3  C    0.000001  -0.040764  -0.046109   0.004464  -0.003147   0.414433
     4  C    0.000001   0.004044  -0.003472  -0.041384  -0.042697  -0.000827
     5  C   -0.000001  -0.001110  -0.006028  -0.000087  -0.000066  -0.045946
     6  C   -0.000048  -0.000137   0.002672  -0.003747   0.004329  -0.000173
     7  C   -0.000115  -0.000081   0.000061   0.000001   0.000001  -0.004666
     8  C    0.002732   0.000072  -0.004266   0.000155  -0.000149  -0.000440
     9  C   -0.006577  -0.000005   0.000012  -0.000000   0.000000  -0.003469
    10  C   -0.059867  -0.000005   0.000124  -0.000003   0.000002  -0.001391
    11  C   -0.051505   0.000001  -0.000011  -0.000000  -0.000000   0.000595
    12  C    0.150941  -0.000000   0.000004   0.000000  -0.000000   0.000075
    13  N    6.635835  -0.000000  -0.000000   0.000000   0.000000   0.000003
    14  H   -0.000000   0.589220  -0.032098  -0.002907  -0.004535   0.004480
    15  H   -0.000000  -0.032098   0.603465  -0.003773   0.004714  -0.000175
    16  H    0.000000  -0.002907  -0.003773   0.597403  -0.032927  -0.000026
    17  H    0.000000  -0.004535   0.004714  -0.032927   0.602415   0.000240
    18  H    0.000003   0.004480  -0.000175  -0.000026   0.000240   0.626851
    19  H   -0.000000  -0.006738   0.004251  -0.000103   0.001661  -0.032049
    20  H   -0.000000  -0.000079  -0.000102  -0.003642  -0.003564   0.000067
    21  H    0.000003  -0.000125   0.000221   0.004552  -0.003218  -0.004085
    22  H    0.000000   0.001077   0.000298   0.000001   0.000004   0.004260
    23  H   -0.000002   0.000275   0.002252  -0.000005  -0.000001  -0.000316
    24  H    0.000000  -0.000051   0.000412   0.002474   0.000024  -0.000030
    25  H   -0.000002   0.000003  -0.000031  -0.000067  -0.000110   0.000008
    26  H    0.000001   0.000004  -0.000001  -0.000000  -0.000000   0.000338
    27  H   -0.000000   0.000001  -0.000004  -0.000000  -0.000000  -0.000027
    28  H   -0.000056   0.000171  -0.002618   0.000024  -0.000035  -0.001296
    29  H   -0.000038  -0.000001   0.000182  -0.000005   0.000002   0.000018
    30  H   -0.000417  -0.000004   0.000006  -0.000000   0.000000  -0.006569
    31  H    0.000913   0.000000  -0.000000   0.000000  -0.000000   0.000174
    32  H   -0.002423   0.000000  -0.000002   0.000000  -0.000000   0.000055
    33  H   -0.002505  -0.000002   0.000014  -0.000003   0.000005  -0.001731
    34  H   -0.002597  -0.000000  -0.000001   0.000000  -0.000000  -0.000015
    35  H    0.003279  -0.000001  -0.000005   0.000000   0.000000   0.000110
    36  H   -0.038136  -0.000000  -0.000000  -0.000000  -0.000000  -0.000009
    37  H    0.335325  -0.000000  -0.000000  -0.000000  -0.000000  -0.000016
    38  H    0.338911  -0.000000   0.000000   0.000000   0.000000  -0.000000
    39  H    0.339470   0.000000  -0.000000   0.000000  -0.000000  -0.000000
              19         20         21         22         23         24
     1  C   -0.039024   0.004150  -0.003785  -0.000878  -0.006239  -0.000040
     2  C   -0.000466  -0.040214  -0.040776  -0.000091   0.000071  -0.004172
     3  C    0.407306   0.000053  -0.000318  -0.037954  -0.051739   0.000056
     4  C    0.000055   0.417975   0.407816  -0.000003   0.000018  -0.038270
     5  C   -0.038862   0.000001   0.000023   0.411438   0.410164   0.000001
     6  C    0.000024  -0.040984  -0.040530  -0.000000   0.000003   0.411055
     7  C   -0.001033  -0.000000   0.000008  -0.035541  -0.044755   0.000000
     8  C   -0.000015   0.003977  -0.004435   0.000008  -0.000421  -0.038882
     9  C    0.000113   0.000000   0.000001   0.003882  -0.004224  -0.000000
    10  C    0.000008   0.000037  -0.000736  -0.000002   0.000067   0.004347
    11  C    0.000003  -0.000000   0.000005   0.000066  -0.000804   0.000002
    12  C    0.000000   0.000001   0.000039   0.000003  -0.000041  -0.000070
    13  N   -0.000000  -0.000000   0.000003   0.000000  -0.000002   0.000000
    14  H   -0.006738  -0.000079  -0.000125   0.001077   0.000275  -0.000051
    15  H    0.004251  -0.000102   0.000221   0.000298   0.002252   0.000412
    16  H   -0.000103  -0.003642   0.004552   0.000001  -0.000005   0.002474
    17  H    0.001661  -0.003564  -0.003218   0.000004  -0.000001   0.000024
    18  H   -0.032049   0.000067  -0.004085   0.004260  -0.000316  -0.000030
    19  H    0.585201  -0.000017   0.000259  -0.005902   0.004593   0.000001
    20  H   -0.000017   0.584917  -0.034350   0.000000  -0.000000  -0.000343
    21  H    0.000259  -0.034350   0.607128  -0.000002   0.000006   0.003805
    22  H   -0.005902   0.000000  -0.000002   0.568998  -0.028038  -0.000000
    23  H    0.004593  -0.000000   0.000006  -0.028038   0.616198   0.000001
    24  H    0.000001  -0.000343   0.003805  -0.000000   0.000001   0.576755
    25  H    0.000000  -0.007696  -0.000220   0.000000  -0.000000  -0.033760
    26  H    0.002007   0.000000   0.000000  -0.003301   0.005131   0.000000
    27  H   -0.000105   0.000000  -0.000000  -0.002815  -0.002871  -0.000000
    28  H    0.000062  -0.000103   0.000429   0.000002  -0.000239  -0.002561
    29  H   -0.000000  -0.000083  -0.000052  -0.000000   0.000010  -0.004121
    30  H    0.000287  -0.000000   0.000097  -0.000123   0.000254   0.000000
    31  H   -0.000019   0.000000  -0.000000  -0.000062  -0.000149  -0.000000
    32  H   -0.000000  -0.000046   0.000294   0.000000  -0.000001  -0.000034
    33  H    0.000016  -0.000033  -0.002278  -0.000001   0.000008  -0.000054
    34  H   -0.000000   0.000000   0.000000  -0.000005   0.000081  -0.000000
    35  H   -0.000006  -0.000000   0.000001  -0.000021  -0.001866   0.000002
    36  H    0.000000   0.000000  -0.000004  -0.000000   0.000011  -0.000002
    37  H    0.000000   0.000000  -0.000003  -0.000000  -0.000000   0.000000
    38  H    0.000000  -0.000000  -0.000000  -0.000000   0.000000  -0.000000
    39  H    0.000000   0.000000   0.000000  -0.000000   0.000000  -0.000000
              25         26         27         28         29         30
     1  C   -0.000085  -0.000068  -0.000077  -0.003923   0.000037   0.000035
     2  C    0.003927   0.000001   0.000001   0.001607  -0.000110   0.000011
     3  C   -0.000026  -0.004425   0.004023  -0.002735   0.000023  -0.001104
     4  C   -0.042747   0.000000  -0.000000  -0.002809   0.003494   0.000010
     5  C    0.000000  -0.044533  -0.035761  -0.000176  -0.000005  -0.003091
     6  C    0.412833  -0.000000   0.000000  -0.040748  -0.035878   0.000011
     7  C    0.000000   0.411813   0.410436  -0.000030   0.000001  -0.037366
     8  C   -0.045053  -0.000002   0.000001   0.411440   0.415512   0.000144
     9  C    0.000000  -0.046713  -0.038393   0.000191   0.000009   0.414728
    10  C   -0.006202   0.000003  -0.000007  -0.046027  -0.044149  -0.002383
    11  C   -0.000004   0.004751  -0.003071  -0.001155   0.000025  -0.056694
    12  C   -0.000072  -0.000109  -0.000020  -0.004905  -0.002863  -0.002037
    13  N   -0.000002   0.000001  -0.000000  -0.000056  -0.000038  -0.000417
    14  H    0.000003   0.000004   0.000001   0.000171  -0.000001  -0.000004
    15  H   -0.000031  -0.000001  -0.000004  -0.002618   0.000182   0.000006
    16  H   -0.000067  -0.000000  -0.000000   0.000024  -0.000005  -0.000000
    17  H   -0.000110  -0.000000  -0.000000  -0.000035   0.000002   0.000000
    18  H    0.000008   0.000338  -0.000027  -0.001296   0.000018  -0.006569
    19  H    0.000000   0.002007  -0.000105   0.000062  -0.000000   0.000287
    20  H   -0.007696   0.000000   0.000000  -0.000103  -0.000083  -0.000000
    21  H   -0.000220   0.000000  -0.000000   0.000429  -0.000052   0.000097
    22  H    0.000000  -0.003301  -0.002815   0.000002  -0.000000  -0.000123
    23  H   -0.000000   0.005131  -0.002871  -0.000239   0.000010   0.000254
    24  H   -0.033760   0.000000  -0.000000  -0.002561  -0.004121   0.000000
    25  H    0.597983  -0.000000   0.000000   0.004893  -0.002377  -0.000000
    26  H   -0.000000   0.597141  -0.031360  -0.000001   0.000000  -0.004470
    27  H    0.000000  -0.031360   0.574102   0.000004  -0.000000   0.004126
    28  H    0.004893  -0.000001   0.000004   0.602728  -0.030650   0.000117
    29  H   -0.002377   0.000000  -0.000000  -0.030650   0.565618  -0.000011
    30  H   -0.000000  -0.004470   0.004126   0.000117  -0.000011   0.599297
    31  H   -0.000000  -0.003480  -0.002812  -0.000009   0.000000  -0.028455
    32  H    0.002629  -0.000000   0.000000   0.004025  -0.003306   0.000013
    33  H    0.000220   0.000017  -0.000003  -0.002465   0.004238  -0.001394
    34  H    0.000000  -0.000112   0.000840   0.000094  -0.000037   0.003906
    35  H   -0.000002   0.000064   0.000403  -0.002548   0.000325   0.001226
    36  H    0.000009   0.000001   0.000001   0.000204   0.001959   0.000078
    37  H    0.000000  -0.000001   0.000001   0.000006   0.000005   0.000574
    38  H   -0.000000  -0.000000   0.000000   0.000001   0.000003  -0.000035
    39  H    0.000000   0.000001  -0.000001   0.000003  -0.000001   0.000150
              31         32         33         34         35         36
     1  C    0.000000  -0.000010   0.000126   0.000000   0.000012   0.000000
     2  C   -0.000000   0.000010   0.000003   0.000000  -0.000003   0.000000
     3  C    0.000110   0.000011  -0.000660  -0.000006   0.000168  -0.000001
     4  C   -0.000000   0.000249   0.000531  -0.000000   0.000006  -0.000002
     5  C    0.003568  -0.000002   0.000078   0.000104  -0.000564  -0.000001
     6  C    0.000000  -0.002793  -0.003532   0.000001   0.000035  -0.000090
     7  C   -0.034250   0.000002  -0.000044   0.000589  -0.005649  -0.000061
     8  C   -0.000012  -0.033002  -0.037216   0.000059  -0.001080  -0.001825
     9  C    0.413458  -0.000022   0.000401  -0.040315  -0.038943   0.003500
    10  C    0.000223   0.411181   0.404911   0.003632  -0.003489  -0.036836
    11  C   -0.038276   0.003646  -0.004241   0.410976   0.417921  -0.038544
    12  C   -0.001334  -0.039200  -0.039461  -0.036986  -0.035185   0.428554
    13  N    0.000913  -0.002423  -0.002505  -0.002597   0.003279  -0.038136
    14  H    0.000000   0.000000  -0.000002  -0.000000  -0.000001  -0.000000
    15  H   -0.000000  -0.000002   0.000014  -0.000001  -0.000005  -0.000000
    16  H    0.000000   0.000000  -0.000003   0.000000   0.000000  -0.000000
    17  H   -0.000000  -0.000000   0.000005  -0.000000   0.000000  -0.000000
    18  H    0.000174   0.000055  -0.001731  -0.000015   0.000110  -0.000009
    19  H   -0.000019  -0.000000   0.000016  -0.000000  -0.000006   0.000000
    20  H    0.000000  -0.000046  -0.000033   0.000000  -0.000000   0.000000
    21  H   -0.000000   0.000294  -0.002278   0.000000   0.000001  -0.000004
    22  H   -0.000062   0.000000  -0.000001  -0.000005  -0.000021  -0.000000
    23  H   -0.000149  -0.000001   0.000008   0.000081  -0.001866   0.000011
    24  H   -0.000000  -0.000034  -0.000054  -0.000000   0.000002  -0.000002
    25  H   -0.000000   0.002629   0.000220   0.000000  -0.000002   0.000009
    26  H   -0.003480  -0.000000   0.000017  -0.000112   0.000064   0.000001
    27  H   -0.002812   0.000000  -0.000003   0.000840   0.000403   0.000001
    28  H   -0.000009   0.004025  -0.002465   0.000094  -0.002548   0.000204
    29  H    0.000000  -0.003306   0.004238  -0.000037   0.000325   0.001959
    30  H   -0.028455   0.000013  -0.001394   0.003906   0.001226   0.000078
    31  H    0.556228  -0.000004   0.000043  -0.006386   0.003479  -0.000112
    32  H   -0.000004   0.536279  -0.030283  -0.000064  -0.000035  -0.002847
    33  H    0.000043  -0.030283   0.576303  -0.000119   0.000265   0.003697
    34  H   -0.006386  -0.000064  -0.000119   0.536163  -0.023555  -0.003517
    35  H    0.003479  -0.000035   0.000265  -0.023555   0.527650  -0.001758
    36  H   -0.000112  -0.002847   0.003697  -0.003517  -0.001758   0.480998
    37  H   -0.000099  -0.000015   0.002866   0.000022  -0.000058   0.002500
    38  H    0.000014   0.000779  -0.000021  -0.000084  -0.000052  -0.003550
    39  H    0.000611   0.000001  -0.000144   0.001794   0.000092  -0.000121
              37         38         39
     1  C    0.000000  -0.000000   0.000000
     2  C    0.000000  -0.000000  -0.000000
     3  C   -0.000000  -0.000000  -0.000000
     4  C   -0.000002   0.000000  -0.000000
     5  C    0.000001   0.000000   0.000001
     6  C   -0.000006   0.000000   0.000001
     7  C   -0.000016   0.000001  -0.000039
     8  C    0.000000  -0.000056  -0.000053
     9  C    0.000833   0.000055  -0.000275
    10  C   -0.002872  -0.000004   0.003036
    11  C   -0.000489   0.002487  -0.001979
    12  C   -0.016973  -0.015869  -0.019929
    13  N    0.335325   0.338911   0.339470
    14  H   -0.000000  -0.000000   0.000000
    15  H   -0.000000   0.000000  -0.000000
    16  H   -0.000000   0.000000   0.000000
    17  H   -0.000000   0.000000  -0.000000
    18  H   -0.000016  -0.000000  -0.000000
    19  H    0.000000   0.000000   0.000000
    20  H    0.000000  -0.000000   0.000000
    21  H   -0.000003  -0.000000   0.000000
    22  H   -0.000000  -0.000000  -0.000000
    23  H   -0.000000   0.000000   0.000000
    24  H    0.000000  -0.000000  -0.000000
    25  H    0.000000  -0.000000   0.000000
    26  H   -0.000001  -0.000000   0.000001
    27  H    0.000001   0.000000  -0.000001
    28  H    0.000006   0.000001   0.000003
    29  H    0.000005   0.000003  -0.000001
    30  H    0.000574  -0.000035   0.000150
    31  H   -0.000099   0.000014   0.000611
    32  H   -0.000015   0.000779   0.000001
    33  H    0.002866  -0.000021  -0.000144
    34  H    0.000022  -0.000084   0.001794
    35  H   -0.000058  -0.000052   0.000092
    36  H    0.002500  -0.003550  -0.000121
    37  H    0.300300  -0.010464  -0.011297
    38  H   -0.010464   0.287974  -0.010507
    39  H   -0.011297  -0.010507   0.295072
 Mulliken charges:
               1
     1  C   -0.223316
     2  C   -0.210550
     3  C   -0.211593
     4  C   -0.227014
     5  C   -0.221645
     6  C   -0.225172
     7  C   -0.218559
     8  C   -0.220618
     9  C   -0.246431
    10  C   -0.231150
    11  C   -0.252494
    12  C    0.001544
    13  N   -0.643125
    14  H    0.115824
    15  H    0.108715
    16  H    0.110540
    17  H    0.109047
    18  H    0.099774
    19  H    0.118495
    20  H    0.120080
    21  H    0.110232
    22  H    0.124705
    23  H    0.102570
    24  H    0.123456
    25  H    0.115950
    26  H    0.117303
    27  H    0.123388
    28  H    0.119088
    29  H    0.132224
    30  H    0.119087
    31  H    0.136639
    32  H    0.154918
    33  H    0.132448
    34  H    0.155540
    35  H    0.159782
    36  H    0.205904
    37  H    0.399879
    38  H    0.410418
    39  H    0.404116
 Sum of Mulliken charges =   1.00000
 Mulliken charges with hydrogens summed into heavy atoms:
               1
     1  C    0.001224
     2  C    0.009037
     3  C    0.006676
     4  C    0.003298
     5  C    0.005630
     6  C    0.014234
     7  C    0.022133
     8  C    0.030694
     9  C    0.009294
    10  C    0.056216
    11  C    0.062828
    12  C    0.207448
    13  N    0.571287
 Electronic spatial extent (au):  <R**2>=           3018.6501
 Charge=              1.0000 electrons
 Dipole moment (field-independent basis, Debye):
    X=             13.6905    Y=             -5.5809    Z=             -2.3747  Tot=             14.9739
 Quadrupole moment (field-independent basis, Debye-Ang):
   XX=            -36.0960   YY=            -71.3975   ZZ=            -79.4348
   XY=            -17.5799   XZ=             -8.4115   YZ=              3.0631
 Traceless Quadrupole moment (field-independent basis, Debye-Ang):
   XX=             26.2134   YY=             -9.0880   ZZ=            -17.1254
   XY=            -17.5799   XZ=             -8.4115   YZ=              3.0631
 Octapole moment (field-independent basis, Debye-Ang**2):
  XXX=            196.0793  YYY=            -29.5676  ZZZ=             -8.6711  XYY=             41.3284
  XXY=            -63.3319  XXZ=            -30.9206  XZZ=             22.1146  YZZ=            -10.5179
  YYZ=             -6.5728  XYZ=             13.0154
 Hexadecapole moment (field-independent basis, Debye-Ang**3):
 XXXX=          -1560.9215 YYYY=          -1446.5646 ZZZZ=           -327.6600 XXXY=           -237.6720
 XXXZ=           -120.4778 YYYX=           -105.2952 YYYZ=             15.7039 ZZZX=            -28.7276
 ZZZY=              7.3488 XXYY=           -489.1857 XXZZ=           -380.8984 YYZZ=           -300.0907
 XXYZ=             39.6779 YYXZ=            -19.5835 ZZXY=            -25.3343
 N-N= 9.077061369327D+02 E-N=-3.018559475556D+03  KE= 5.229445673444D+02
 Merz-Kollman atomic radii used.

 **********************************************************************

            Electrostatic Properties Using The SCF Density

 **********************************************************************

       Atomic Center    1 is at  -2.492549  0.998434  0.343203
       Atomic Center    2 is at  -3.207641 -0.156571 -0.384909
       Atomic Center    3 is at  -1.295097  1.586013 -0.424524
       Atomic Center    4 is at  -2.340441 -1.375949 -0.770308
       Atomic Center    5 is at  -0.370315  2.437392  0.473042
       Atomic Center    6 is at  -1.663707 -2.139322  0.387411
       Atomic Center    7 is at   1.036057  2.663997 -0.120917
       Atomic Center    8 is at  -0.316638 -1.597574  0.914758
       Atomic Center    9 is at   1.824323  1.387514 -0.482619
       Atomic Center   10 is at   0.824829 -1.665752 -0.117745
       Atomic Center   11 is at   2.103513  0.435532  0.723021
       Atomic Center   12 is at   2.140724 -1.058943  0.390912
       Atomic Center   13 is at   3.234425 -1.309521 -0.683932
       Atomic Center   14 is at  -3.222247  1.800658  0.503747
       Atomic Center   15 is at  -2.187414  0.663240  1.342686
       Atomic Center   16 is at  -4.048234 -0.499943  0.231067
       Atomic Center   17 is at  -3.672046  0.236071 -1.298935
       Atomic Center   18 is at  -0.714823  0.796415 -0.906383
       Atomic Center   19 is at  -1.685967  2.235500 -1.217833
       Atomic Center   20 is at  -2.982124 -2.086780 -1.303371
       Atomic Center   21 is at  -1.612616 -1.066651 -1.532005
       Atomic Center   22 is at  -0.843142  3.404912  0.664598
       Atomic Center   23 is at  -0.257378  1.918115  1.435216
       Atomic Center   24 is at  -2.351596 -2.261527  1.232087
       Atomic Center   25 is at  -1.496200 -3.171822  0.047572
       Atomic Center   26 is at   0.895017  3.210704 -1.063594
       Atomic Center   27 is at   1.636111  3.329295  0.509954
       Atomic Center   28 is at  -0.456742 -0.563281  1.235331
       Atomic Center   29 is at  -0.022492 -2.166521  1.805586
       Atomic Center   30 is at   1.265828  0.828357 -1.239994
       Atomic Center   31 is at   2.781243  1.688385 -0.927163
       Atomic Center   32 is at   0.983798 -2.714761 -0.404561
       Atomic Center   33 is at   0.507886 -1.139301 -1.025647
       Atomic Center   34 is at   3.053211  0.741377  1.182383
       Atomic Center   35 is at   1.350209  0.619085  1.490406
       Atomic Center   36 is at   2.496923 -1.617356  1.262149
       Atomic Center   37 is at   2.835570 -1.264424 -1.627346
       Atomic Center   38 is at   3.665926 -2.231646 -0.571162
       Atomic Center   39 is at   3.981978 -0.610091 -0.625222
    1215 points will be used for fitting atomic charges
 Fitting point charges to electrostatic potential
 Charges from ESP fit, RMS=   0.00151 RRMS=   0.01325:
 ESP charges:
               1
     1  C   -0.185266
     2  C   -0.008393
     3  C    0.069978
     4  C   -0.098798
     5  C   -0.151612
     6  C   -0.058605
     7  C   -0.009778
     8  C   -0.039704
     9  C    0.129387
    10  C   -0.316821
    11  C   -0.407281
    12  C    0.362978
    13  N   -0.851253
    14  H    0.053403
    15  H    0.058787
    16  H    0.027381
    17  H    0.015952
    18  H    0.009048
    19  H    0.034577
    20  H    0.040535
    21  H    0.031974
    22  H    0.055986
    23  H    0.038809
    24  H    0.047547
    25  H    0.035113
    26  H   -0.007300
    27  H    0.032457
    28  H    0.052400
    29  H    0.042710
    30  H   -0.015017
    31  H    0.007747
    32  H    0.129366
    33  H    0.151294
    34  H    0.128541
    35  H    0.126542
    36  H    0.093403
    37  H    0.434204
    38  H    0.466452
    39  H    0.473257
 Sum of ESP charges =   1.00000
 ESP charges with hydrogens summed into heavy atoms:
               1
     1  C   -0.073076
     2  C    0.034941
     3  C    0.113603
     4  C   -0.026289
     5  C   -0.056817
     6  C    0.024054
     7  C    0.015379
     8  C    0.055406
     9  C    0.122116
    10  C   -0.036161
    11  C   -0.152198
    12  C    0.456381
    13  N    0.522661
 Charge=   1.00000 Dipole=    13.6836    -5.5840    -2.3387 Tot=    14.9630
 Writing Antechamber ESP formatted file "G8.esp"
 -----------------------------------------------------------------

              Electrostatic Properties (Atomic Units)

 -----------------------------------------------------------------
    Center     Electric         -------- Electric Field --------
               Potential          X             Y             Z
 -----------------------------------------------------------------
    1 Atom    -14.650979
    2 Atom    -14.653754
    3 Atom    -14.640730
    4 Atom    -14.639579
    5 Atom    -14.635762
    6 Atom    -14.627501
    7 Atom    -14.620554
    8 Atom    -14.601363
    9 Atom    -14.583756
   10 Atom    -14.560547
   11 Atom    -14.563910
   12 Atom    -14.473122
   13 Atom    -17.999970
   14 Atom     -1.065053
   15 Atom     -1.051774
   16 Atom     -1.067627
   17 Atom     -1.065718
   18 Atom     -1.026166
   19 Atom     -1.050688
   20 Atom     -1.054662
   21 Atom     -1.032363
   22 Atom     -1.049529
   23 Atom     -1.037498
   24 Atom     -1.042371
   25 Atom     -1.036641
   26 Atom     -1.037337
   27 Atom     -1.029938
   28 Atom     -1.012911
   29 Atom     -1.006750
   30 Atom     -0.982771
   31 Atom     -0.981529
   32 Atom     -0.955833
   33 Atom     -0.962975
   34 Atom     -0.962422
   35 Atom     -0.976376
   36 Atom     -0.917807
   37 Atom     -0.746860
   38 Atom     -0.740138
   39 Atom     -0.744508
 -----------------------------------------------------------------

 Test job not archived.
 1\1\GINC-CPU187\SP\RHF\6-31G(d,p)\C12H26N1(1+)\FEBRERMA\05-Feb-2024\0\
 \# HF/6-31G** SCRF=(Solvent=Water) POP=MK iop(6/50=1) geom=allcheck gu
 ess=read\\G8\\1,1\C,0,7.5882195973,38.8283657901,27.545045522\C,0,8.25
 57234224,40.1078274935,27.0037905333\C,0,7.4887884828,38.7666211764,29
 .0795966698\C,0,9.6828481494,40.413332778,27.5111666697\C,0,7.20007281
 61,37.3420955299,29.602149876\C,0,10.7701769933,39.3648043833,27.19601
 01545\C,0,7.5312104541,37.1492183046,31.0971976957\C,0,10.902402982,38
 .1576870234,28.1507687182\C,0,8.9788038836,37.4870152504,31.5118837199
 \C,0,11.3442985058,38.5412221745,29.5760019341\C,0,10.0729932147,36.63
 16395471,30.7985358425\C,0,11.4028958369,37.3442011889,30.536332502\N,
 0,11.9848464705,37.8395065973,31.8892060517\H,0,6.5729928772,38.776675
 3642,27.1346336836\H,0,8.1172680119,37.9500758082,27.1537106411\H,0,8.
 2708165204,40.0654180484,25.9074780882\H,0,7.6160621475,40.9676467791,
 27.2421762173\H,0,8.3980019318,39.1520868657,29.5455562747\H,0,6.66055
 84304,39.4147175443,29.392578324\H,0,10.0002102296,41.3621454687,27.06
 36949973\H,0,9.6365456776,40.6390982401,28.584694757\H,0,6.1473634874,
 37.1002705148,29.4298787906\H,0,7.8102171229,36.6361143321,29.02120532
 64\H,0,10.6728809423,38.9950600086,26.1686710817\H,0,11.7379951854,39.
 8871227736,27.1851218771\H,0,6.8863981697,37.8430181273,31.6542249531\
 H,0,7.2469154888,36.1500972615,31.4459360892\H,0,9.9426458652,37.63888
 91678,28.1940301091\H,0,11.6267979599,37.4461726541,27.7350824968\H,0,
 9.1725645995,38.5424782045,31.2959064686\H,0,9.0679558101,37.345799444
 7,32.5962954418\H,0,12.3285969332,39.0275681991,29.5252224439\H,0,10.6
 469002318,39.2900523279,29.9694205175\H,0,10.2433899481,35.7295854514,
 31.4016493959\H,0,9.66494399,36.2643591936,29.8558587786\H,0,12.142068
 5937,36.6184334523,30.1832857054\H,0,11.6831759325,38.7993509732,32.08
 62948351\H,0,13.0090898468,37.8293494965,31.8823754037\H,0,11.67586325
 75,37.2471800609,32.6671284128\\Version=ES64L-G16RevA.03\State=1-A\HF=
 -523.915841\RMSD=9.839e-09\Dipole=4.1607409,-0.9492905,4.0611531\Quadr
 upole=6.8856463,-12.8477371,5.9620908,-3.8554385,18.7005739,-4.5092051
 \PG=C01 [X(C12H26N1)]\\@


 WE THE UNWILLING
 LED BY THE UNQUALIFIED
 HAVE BEEN DOING THE UNBELIEVABLE SO LONG WITH SO LITTLE
 THAT WE NOW ATTEMPT THE IMPOSSIBLE WITH NOTHING.

                                    -- ANONYMOUS
 Job cpu time:       0 days  0 hours  4 minutes 35.2 seconds.
 Elapsed time:       0 days  0 hours  0 minutes 35.3 seconds.
 File lengths (MBytes):  RWF=    143 Int=      0 D2E=      0 Chk=     11 Scr=      1
 Normal termination of Gaussian 16 at Mon Feb  5 16:01:43 2024.
