 Entering Gaussian System, Link 0=g16
 Initial command:
 /opt/ebsofts/Gaussian/g16/l1.exe "/scratch/Gau-1069110.inp" -scrdir="/scratch/"
 Entering Link 1 = /opt/ebsofts/Gaussian/g16/l1.exe PID=   1069116.
  
 Copyright (c) 1988,1990,1992,1993,1995,1998,2003,2009,2016,
            Gaussian, Inc.  All Rights Reserved.
  
 This is part of the Gaussian(R) 16 program.  It is based on
 the Gaussian(R) 09 system (copyright 2009, Gaussian, Inc.),
 the Gaussian(R) 03 system (copyright 2003, Gaussian, Inc.),
 the Gaussian(R) 98 system (copyright 1998, Gaussian, Inc.),
 the Gaussian(R) 94 system (copyright 1995, Gaussian, Inc.),
 the Gaussian 92(TM) system (copyright 1992, Gaussian, Inc.),
 the Gaussian 90(TM) system (copyright 1990, Gaussian, Inc.),
 the Gaussian 88(TM) system (copyright 1988, Gaussian, Inc.),
 the Gaussian 86(TM) system (copyright 1986, Carnegie Mellon
 University), and the Gaussian 82(TM) system (copyright 1983,
 Carnegie Mellon University). Gaussian is a federally registered
 trademark of Gaussian, Inc.
  
 This software contains proprietary and confidential information,
 including trade secrets, belonging to Gaussian, Inc.
  
 This software is provided under written license and may be
 used, copied, transmitted, or stored only in accord with that
 written license.
  
 The following legend is applicable only to US Government
 contracts under FAR:
  
                    RESTRICTED RIGHTS LEGEND
  
 Use, reproduction and disclosure by the US Government is
 subject to restrictions as set forth in subparagraphs (a)
 and (c) of the Commercial Computer Software - Restricted
 Rights clause in FAR 52.227-19.
  
 Gaussian, Inc.
 340 Quinnipiac St., Bldg. 40, Wallingford CT 06492
  
  
 ---------------------------------------------------------------
 Warning -- This program may not be used in any manner that
 competes with the business of Gaussian, Inc. or will provide
 assistance to any competitor of Gaussian, Inc.  The licensee
 of this program is prohibited from giving any competitor of
 Gaussian, Inc. access to this program.  By using this program,
 the user acknowledges that Gaussian, Inc. is engaged in the
 business of creating and licensing software in the field of
 computational chemistry and represents and warrants to the
 licensee that it is not a competitor of Gaussian, Inc. and that
 it will not use this program in any manner prohibited above.
 ---------------------------------------------------------------
  

 Cite this work as:
 Gaussian 16, Revision A.03,
 M. J. Frisch, G. W. Trucks, H. B. Schlegel, G. E. Scuseria, 
 M. A. Robb, J. R. Cheeseman, G. Scalmani, V. Barone, 
 G. A. Petersson, H. Nakatsuji, X. Li, M. Caricato, A. V. Marenich, 
 J. Bloino, B. G. Janesko, R. Gomperts, B. Mennucci, H. P. Hratchian, 
 J. V. Ortiz, A. F. Izmaylov, J. L. Sonnenberg, D. Williams-Young, 
 F. Ding, F. Lipparini, F. Egidi, J. Goings, B. Peng, A. Petrone, 
 T. Henderson, D. Ranasinghe, V. G. Zakrzewski, J. Gao, N. Rega, 
 G. Zheng, W. Liang, M. Hada, M. Ehara, K. Toyota, R. Fukuda, 
 J. Hasegawa, M. Ishida, T. Nakajima, Y. Honda, O. Kitao, H. Nakai, 
 T. Vreven, K. Throssell, J. A. Montgomery, Jr., J. E. Peralta, 
 F. Ogliaro, M. J. Bearpark, J. J. Heyd, E. N. Brothers, K. N. Kudin, 
 V. N. Staroverov, T. A. Keith, R. Kobayashi, J. Normand, 
 K. Raghavachari, A. P. Rendell, J. C. Burant, S. S. Iyengar, 
 J. Tomasi, M. Cossi, J. M. Millam, M. Klene, C. Adamo, R. Cammi, 
 J. W. Ochterski, R. L. Martin, K. Morokuma, O. Farkas, 
 J. B. Foresman, and D. J. Fox, Gaussian, Inc., Wallingford CT, 2016.
 
 ******************************************
 Gaussian 16:  ES64L-G16RevA.03 25-Dec-2016
                 5-Feb-2024 
 ******************************************
 %Chk=G3.chk
 %nprocshared=8
 Will use up to    8 processors via shared memory.
 %mem=1GB
 --------------------------------
 # B3LYP/6-31G** opt=Modredundant
 --------------------------------
 1/18=120,19=15,26=3,38=1/1,3;
 2/9=110,12=2,17=6,18=5,40=1/2;
 3/5=1,6=6,7=101,11=2,25=1,30=1,71=1,74=-5/1,2,3;
 4//1;
 5/5=2,38=5/2;
 6/7=2,8=2,9=2,10=2,28=1/1;
 7//1,2,3,16;
 1/18=20,19=15,26=3/3(2);
 2/9=110/2;
 99//99;
 2/9=110/2;
 3/5=1,6=6,7=101,11=2,25=1,30=1,71=1,74=-5/1,2,3;
 4/5=5,16=3,69=1/1;
 5/5=2,38=5/2;
 7//1,2,3,16;
 1/18=20,19=15,26=3/3(-5);
 2/9=110/2;
 6/7=2,8=2,9=2,10=2,19=2,28=1/1;
 99/9=1/99;
 --
 G3
 --
 Symbolic Z-matrix:
 Charge =  1 Multiplicity = 1
 C                     11.9461   40.4393   33.0356 
 C                     12.0032   41.7077   32.4527 
 C                     11.216    37.0578   30.733 
 C                     11.5693   40.7278   30.3013 
 C                     11.4145   37.0064   32.0978 
 C                     11.5119   39.4522   30.8879 
 C                     11.2667   38.3033   30.1238 
 C                     11.7023   39.2977   32.2771 
 C                     11.8145   41.8525   31.0838 
 C                     7.3493    35.1788   27.7167 
 C                     6.8437    36.0726   26.86 
 C                     8.4148    39.5308   26.2065 
 C                     9.6174    37.4247   26.7236 
 C                     8.5709    39.9728   27.661 
 C                     7.2385    38.0137   28.408 
 C                     7.0875    37.5502   26.9471 
 C                     8.3186    37.9962   26.1187 
 C                     9.7075    37.7733   28.2168 
 C                     12.1239   44.1922   31.3771 
 C                     11.0498   38.3606   28.6306 
 N                     11.6538   38.0902   32.871 
 N                     8.5717    38.7378   28.5426 
 O                     12.0922   37.6222   27.9965 
 O                     11.8689   43.0856   30.5126 
 H                     12.0967   40.3531   34.1102 
 H                     12.1962   42.5762   33.0765 
 H                     11.0284   36.152    30.167 
 H                     11.4245   40.8627   29.2317 
 H                     11.3856   36.0604   32.6286 
 H                     7.135     34.1223   27.5984 
 H                     7.9812    35.4808   28.5448 
 H                     6.2158    35.7209   26.0461 
 H                     7.5209    39.9945   25.7721 
 H                     9.2656    39.8941   25.6173 
 H                     9.6525    36.3356   26.6011 
 H                     10.4834   37.8161   26.1749 
 H                     9.5025    40.5178   27.8358 
 H                     7.7381    40.6051   27.987 
 H                     6.4579    38.7294   28.689 
 H                     7.2395    37.1994   29.1412 
 H                     6.1933    38.031    26.5288 
 H                     8.2223    37.6883   25.0712 
 H                     9.5247    36.8784   28.8245 
 H                     12.1412   45.1155   30.793 
 H                     13.0834   44.0489   31.8805 
 H                     11.3283   44.2508   32.1236 
 H                     11.1121   39.3916   28.2628 
 H                     8.6682    39.0395   29.5217 
 H                     12.0279   36.7139   28.3294 
 
 The following ModRedundant input section has been read:
 D    *       *       *       *    F                                           
 

 GradGradGradGradGradGradGradGradGradGradGradGradGradGradGradGradGradGrad
 Berny optimization.
 Initialization pass.
                           ----------------------------
                           !    Initial Parameters    !
                           ! (Angstroms and Degrees)  !
 --------------------------                            --------------------------
 ! Name  Definition              Value          Derivative Info.                !
 --------------------------------------------------------------------------------
 ! R1    R(1,2)                  1.3971         estimate D2E/DX2                !
 ! R2    R(1,8)                  1.3921         estimate D2E/DX2                !
 ! R3    R(1,25)                 1.0885         estimate D2E/DX2                !
 ! R4    R(2,9)                  1.3894         estimate D2E/DX2                !
 ! R5    R(2,26)                 1.0866         estimate D2E/DX2                !
 ! R6    R(3,5)                  1.3801         estimate D2E/DX2                !
 ! R7    R(3,7)                  1.3874         estimate D2E/DX2                !
 ! R8    R(3,27)                 1.0844         estimate D2E/DX2                !
 ! R9    R(4,6)                  1.4052         estimate D2E/DX2                !
 ! R10   R(4,9)                  1.3919         estimate D2E/DX2                !
 ! R11   R(4,28)                 1.0878         estimate D2E/DX2                !
 ! R12   R(5,21)                 1.3527         estimate D2E/DX2                !
 ! R13   R(5,29)                 1.0851         estimate D2E/DX2                !
 ! R14   R(6,7)                  1.4014         estimate D2E/DX2                !
 ! R15   R(6,8)                  1.4107         estimate D2E/DX2                !
 ! R16   R(7,20)                 1.51           estimate D2E/DX2                !
 ! R17   R(8,21)                 1.3465         estimate D2E/DX2                !
 ! R18   R(9,24)                 1.3601         estimate D2E/DX2                !
 ! R19   R(10,11)                1.3373         estimate D2E/DX2                !
 ! R20   R(10,30)                1.0845         estimate D2E/DX2                !
 ! R21   R(10,31)                1.0846         estimate D2E/DX2                !
 ! R22   R(11,16)                1.5001         estimate D2E/DX2                !
 ! R23   R(11,32)                1.0865         estimate D2E/DX2                !
 ! R24   R(12,14)                1.5282         estimate D2E/DX2                !
 ! R25   R(12,17)                1.5401         estimate D2E/DX2                !
 ! R26   R(12,33)                1.0967         estimate D2E/DX2                !
 ! R27   R(12,34)                1.0968         estimate D2E/DX2                !
 ! R28   R(13,17)                1.5425         estimate D2E/DX2                !
 ! R29   R(13,18)                1.536          estimate D2E/DX2                !
 ! R30   R(13,35)                1.0965         estimate D2E/DX2                !
 ! R31   R(13,36)                1.0974         estimate D2E/DX2                !
 ! R32   R(14,22)                1.5174         estimate D2E/DX2                !
 ! R33   R(14,37)                1.0934         estimate D2E/DX2                !
 ! R34   R(14,38)                1.0953         estimate D2E/DX2                !
 ! R35   R(15,16)                1.5401         estimate D2E/DX2                !
 ! R36   R(15,22)                1.5231         estimate D2E/DX2                !
 ! R37   R(15,39)                1.0957         estimate D2E/DX2                !
 ! R38   R(15,40)                1.0957         estimate D2E/DX2                !
 ! R39   R(16,17)                1.5494         estimate D2E/DX2                !
 ! R40   R(16,41)                1.0981         estimate D2E/DX2                !
 ! R41   R(17,42)                1.0961         estimate D2E/DX2                !
 ! R42   R(18,20)                1.5225         estimate D2E/DX2                !
 ! R43   R(18,22)                1.5253         estimate D2E/DX2                !
 ! R44   R(18,43)                1.0971         estimate D2E/DX2                !
 ! R45   R(19,24)                1.4272         estimate D2E/DX2                !
 ! R46   R(19,44)                1.0927         estimate D2E/DX2                !
 ! R47   R(19,45)                1.093          estimate D2E/DX2                !
 ! R48   R(19,46)                1.0926         estimate D2E/DX2                !
 ! R49   R(20,23)                1.4262         estimate D2E/DX2                !
 ! R50   R(20,47)                1.0964         estimate D2E/DX2                !
 ! R51   R(22,48)                1.0291         estimate D2E/DX2                !
 ! R52   R(23,49)                0.9695         estimate D2E/DX2                !
 ! A1    A(2,1,8)              121.6237         estimate D2E/DX2                !
 ! A2    A(2,1,25)             118.5632         estimate D2E/DX2                !
 ! A3    A(8,1,25)             119.813          estimate D2E/DX2                !
 ! A4    A(1,2,9)              120.0086         estimate D2E/DX2                !
 ! A5    A(1,2,26)             119.5645         estimate D2E/DX2                !
 ! A6    A(9,2,26)             120.4269         estimate D2E/DX2                !
 ! A7    A(5,3,7)              117.5414         estimate D2E/DX2                !
 ! A8    A(5,3,27)             120.6576         estimate D2E/DX2                !
 ! A9    A(7,3,27)             121.801          estimate D2E/DX2                !
 ! A10   A(6,4,9)              120.3997         estimate D2E/DX2                !
 ! A11   A(6,4,28)             121.1735         estimate D2E/DX2                !
 ! A12   A(9,4,28)             118.4268         estimate D2E/DX2                !
 ! A13   A(3,5,21)             124.1159         estimate D2E/DX2                !
 ! A14   A(3,5,29)             120.8216         estimate D2E/DX2                !
 ! A15   A(21,5,29)            115.0625         estimate D2E/DX2                !
 ! A16   A(4,6,7)              121.5842         estimate D2E/DX2                !
 ! A17   A(4,6,8)              120.332          estimate D2E/DX2                !
 ! A18   A(7,6,8)              118.0838         estimate D2E/DX2                !
 ! A19   A(3,7,6)              120.1949         estimate D2E/DX2                !
 ! A20   A(3,7,20)             117.5828         estimate D2E/DX2                !
 ! A21   A(6,7,20)             122.2224         estimate D2E/DX2                !
 ! A22   A(1,8,6)              118.0589         estimate D2E/DX2                !
 ! A23   A(1,8,21)             120.0909         estimate D2E/DX2                !
 ! A24   A(6,8,21)             121.8503         estimate D2E/DX2                !
 ! A25   A(2,9,4)              119.5771         estimate D2E/DX2                !
 ! A26   A(2,9,24)             120.1879         estimate D2E/DX2                !
 ! A27   A(4,9,24)             120.2349         estimate D2E/DX2                !
 ! A28   A(11,10,30)           120.4319         estimate D2E/DX2                !
 ! A29   A(11,10,31)           121.5537         estimate D2E/DX2                !
 ! A30   A(30,10,31)           118.0144         estimate D2E/DX2                !
 ! A31   A(10,11,16)           124.0338         estimate D2E/DX2                !
 ! A32   A(10,11,32)           118.8189         estimate D2E/DX2                !
 ! A33   A(16,11,32)           117.1473         estimate D2E/DX2                !
 ! A34   A(14,12,17)           110.4164         estimate D2E/DX2                !
 ! A35   A(14,12,33)           109.7529         estimate D2E/DX2                !
 ! A36   A(14,12,34)           109.6488         estimate D2E/DX2                !
 ! A37   A(17,12,33)           110.3529         estimate D2E/DX2                !
 ! A38   A(17,12,34)           110.3573         estimate D2E/DX2                !
 ! A39   A(33,12,34)           106.2261         estimate D2E/DX2                !
 ! A40   A(17,13,18)           110.2751         estimate D2E/DX2                !
 ! A41   A(17,13,35)           110.5563         estimate D2E/DX2                !
 ! A42   A(17,13,36)           109.6482         estimate D2E/DX2                !
 ! A43   A(18,13,35)           109.3987         estimate D2E/DX2                !
 ! A44   A(18,13,36)           111.0292         estimate D2E/DX2                !
 ! A45   A(35,13,36)           105.8508         estimate D2E/DX2                !
 ! A46   A(12,14,22)           108.5201         estimate D2E/DX2                !
 ! A47   A(12,14,37)           112.5428         estimate D2E/DX2                !
 ! A48   A(12,14,38)           111.876          estimate D2E/DX2                !
 ! A49   A(22,14,37)           108.2015         estimate D2E/DX2                !
 ! A50   A(22,14,38)           107.2974         estimate D2E/DX2                !
 ! A51   A(37,14,38)           108.2109         estimate D2E/DX2                !
 ! A52   A(16,15,22)           108.2237         estimate D2E/DX2                !
 ! A53   A(16,15,39)           111.716          estimate D2E/DX2                !
 ! A54   A(16,15,40)           114.2779         estimate D2E/DX2                !
 ! A55   A(22,15,39)           106.8819         estimate D2E/DX2                !
 ! A56   A(22,15,40)           107.0596         estimate D2E/DX2                !
 ! A57   A(39,15,40)           108.3287         estimate D2E/DX2                !
 ! A58   A(11,16,15)           111.5585         estimate D2E/DX2                !
 ! A59   A(11,16,17)           112.4337         estimate D2E/DX2                !
 ! A60   A(11,16,41)           106.0707         estimate D2E/DX2                !
 ! A61   A(15,16,17)           110.0368         estimate D2E/DX2                !
 ! A62   A(15,16,41)           108.0246         estimate D2E/DX2                !
 ! A63   A(17,16,41)           108.5013         estimate D2E/DX2                !
 ! A64   A(12,17,13)           107.1107         estimate D2E/DX2                !
 ! A65   A(12,17,16)           107.8162         estimate D2E/DX2                !
 ! A66   A(12,17,42)           109.8696         estimate D2E/DX2                !
 ! A67   A(13,17,16)           110.6523         estimate D2E/DX2                !
 ! A68   A(13,17,42)           110.1621         estimate D2E/DX2                !
 ! A69   A(16,17,42)           111.118          estimate D2E/DX2                !
 ! A70   A(13,18,20)           113.7963         estimate D2E/DX2                !
 ! A71   A(13,18,22)           107.9076         estimate D2E/DX2                !
 ! A72   A(13,18,43)           110.0958         estimate D2E/DX2                !
 ! A73   A(20,18,22)           110.7655         estimate D2E/DX2                !
 ! A74   A(20,18,43)           108.1207         estimate D2E/DX2                !
 ! A75   A(22,18,43)           105.8679         estimate D2E/DX2                !
 ! A76   A(24,19,44)           109.5237         estimate D2E/DX2                !
 ! A77   A(24,19,45)           109.5226         estimate D2E/DX2                !
 ! A78   A(24,19,46)           108.9867         estimate D2E/DX2                !
 ! A79   A(44,19,45)           110.0654         estimate D2E/DX2                !
 ! A80   A(44,19,46)           109.3567         estimate D2E/DX2                !
 ! A81   A(45,19,46)           109.3666         estimate D2E/DX2                !
 ! A82   A(7,20,18)            112.3824         estimate D2E/DX2                !
 ! A83   A(7,20,23)            108.3636         estimate D2E/DX2                !
 ! A84   A(7,20,47)            111.0545         estimate D2E/DX2                !
 ! A85   A(18,20,23)           108.8957         estimate D2E/DX2                !
 ! A86   A(18,20,47)           108.7635         estimate D2E/DX2                !
 ! A87   A(23,20,47)           107.2285         estimate D2E/DX2                !
 ! A88   A(5,21,8)             118.2138         estimate D2E/DX2                !
 ! A89   A(14,22,15)           109.5805         estimate D2E/DX2                !
 ! A90   A(14,22,18)           113.0142         estimate D2E/DX2                !
 ! A91   A(14,22,48)           108.3139         estimate D2E/DX2                !
 ! A92   A(15,22,18)           109.4088         estimate D2E/DX2                !
 ! A93   A(15,22,48)           107.7909         estimate D2E/DX2                !
 ! A94   A(18,22,48)           108.5899         estimate D2E/DX2                !
 ! A95   A(20,23,49)           106.4943         estimate D2E/DX2                !
 ! A96   A(9,24,19)            117.1119         estimate D2E/DX2                !
 ! D1    D(8,1,2,9)             -0.0034         Frozen                          !
 ! D2    D(8,1,2,26)          -179.9694         Frozen                          !
 ! D3    D(25,1,2,9)          -179.9611         Frozen                          !
 ! D4    D(25,1,2,26)            0.0729         Frozen                          !
 ! D5    D(2,1,8,6)              0.0141         Frozen                          !
 ! D6    D(2,1,8,21)           179.9994         Frozen                          !
 ! D7    D(25,1,8,6)           179.9713         Frozen                          !
 ! D8    D(25,1,8,21)           -0.0434         Frozen                          !
 ! D9    D(1,2,9,4)             -0.0093         Frozen                          !
 ! D10   D(1,2,9,24)           179.9793         Frozen                          !
 ! D11   D(26,2,9,4)           179.9564         Frozen                          !
 ! D12   D(26,2,9,24)           -0.055          Frozen                          !
 ! D13   D(7,3,5,21)            -0.0017         Frozen                          !
 ! D14   D(7,3,5,29)           179.9645         Frozen                          !
 ! D15   D(27,3,5,21)          179.9766         Frozen                          !
 ! D16   D(27,3,5,29)           -0.0572         Frozen                          !
 ! D17   D(5,3,7,6)             -0.0057         Frozen                          !
 ! D18   D(5,3,7,20)           179.9936         Frozen                          !
 ! D19   D(27,3,7,6)          -179.9837         Frozen                          !
 ! D20   D(27,3,7,20)            0.0156         Frozen                          !
 ! D21   D(9,4,6,7)           -180.0            Frozen                          !
 ! D22   D(9,4,6,8)             -0.0001         Frozen                          !
 ! D23   D(28,4,6,7)             0.0012         Frozen                          !
 ! D24   D(28,4,6,8)          -179.9988         Frozen                          !
 ! D25   D(6,4,9,2)              0.011          Frozen                          !
 ! D26   D(6,4,9,24)          -179.9776         Frozen                          !
 ! D27   D(28,4,9,2)          -179.9902         Frozen                          !
 ! D28   D(28,4,9,24)            0.0212         Frozen                          !
 ! D29   D(3,5,21,8)             0.0094         Frozen                          !
 ! D30   D(29,5,21,8)         -179.9586         Frozen                          !
 ! D31   D(4,6,7,3)           -179.9948         Frozen                          !
 ! D32   D(4,6,7,20)             0.006          Frozen                          !
 ! D33   D(8,6,7,3)              0.0052         Frozen                          !
 ! D34   D(8,6,7,20)          -179.994          Frozen                          !
 ! D35   D(4,6,8,1)             -0.0123         Frozen                          !
 ! D36   D(4,6,8,21)          -179.9973         Frozen                          !
 ! D37   D(7,6,8,1)            179.9876         Frozen                          !
 ! D38   D(7,6,8,21)             0.0026         Frozen                          !
 ! D39   D(3,7,20,18)           57.9027         Frozen                          !
 ! D40   D(3,7,20,23)          -62.4767         Frozen                          !
 ! D41   D(3,7,20,47)          179.995          Frozen                          !
 ! D42   D(6,7,20,18)         -122.098          Frozen                          !
 ! D43   D(6,7,20,23)          117.5225         Frozen                          !
 ! D44   D(6,7,20,47)           -0.0058         Frozen                          !
 ! D45   D(1,8,21,5)          -179.9944         Frozen                          !
 ! D46   D(6,8,21,5)            -0.0097         Frozen                          !
 ! D47   D(2,9,24,19)           -0.0083         Frozen                          !
 ! D48   D(4,9,24,19)          179.9802         Frozen                          !
 ! D49   D(30,10,11,16)       -179.9875         Frozen                          !
 ! D50   D(30,10,11,32)          0.025          Frozen                          !
 ! D51   D(31,10,11,16)         -0.0078         Frozen                          !
 ! D52   D(31,10,11,32)       -179.9953         Frozen                          !
 ! D53   D(10,11,16,15)        -32.608          Frozen                          !
 ! D54   D(10,11,16,17)         91.5637         Frozen                          !
 ! D55   D(10,11,16,41)       -149.9983         Frozen                          !
 ! D56   D(32,11,16,15)        147.3797         Frozen                          !
 ! D57   D(32,11,16,17)        -88.4486         Frozen                          !
 ! D58   D(32,11,16,41)         29.9894         Frozen                          !
 ! D59   D(17,12,14,22)         -0.2901         Frozen                          !
 ! D60   D(17,12,14,37)        119.4271         Frozen                          !
 ! D61   D(17,12,14,38)       -118.4805         Frozen                          !
 ! D62   D(33,12,14,22)        121.5789         Frozen                          !
 ! D63   D(33,12,14,37)       -118.7039         Frozen                          !
 ! D64   D(33,12,14,38)          3.3885         Frozen                          !
 ! D65   D(34,12,14,22)       -122.0958         Frozen                          !
 ! D66   D(34,12,14,37)         -2.3786         Frozen                          !
 ! D67   D(34,12,14,38)        119.7138         Frozen                          !
 ! D68   D(14,12,17,13)        -59.4908         Frozen                          !
 ! D69   D(14,12,17,16)         59.6235         Frozen                          !
 ! D70   D(14,12,17,42)       -179.1422         Frozen                          !
 ! D71   D(33,12,17,13)        178.9949         Frozen                          !
 ! D72   D(33,12,17,16)        -61.8908         Frozen                          !
 ! D73   D(33,12,17,42)         59.3436         Frozen                          !
 ! D74   D(34,12,17,13)         61.8956         Frozen                          !
 ! D75   D(34,12,17,16)       -178.9901         Frozen                          !
 ! D76   D(34,12,17,42)        -57.7558         Frozen                          !
 ! D77   D(18,13,17,12)         64.4139         Frozen                          !
 ! D78   D(18,13,17,16)        -52.8541         Frozen                          !
 ! D79   D(18,13,17,42)       -176.1226         Frozen                          !
 ! D80   D(35,13,17,12)       -174.4757         Frozen                          !
 ! D81   D(35,13,17,16)         68.2564         Frozen                          !
 ! D82   D(35,13,17,42)        -55.0121         Frozen                          !
 ! D83   D(36,13,17,12)        -58.1399         Frozen                          !
 ! D84   D(36,13,17,16)       -175.4078         Frozen                          !
 ! D85   D(36,13,17,42)         61.3236         Frozen                          !
 ! D86   D(17,13,18,20)       -131.2752         Frozen                          !
 ! D87   D(17,13,18,22)         -7.928          Frozen                          !
 ! D88   D(17,13,18,43)        107.1715         Frozen                          !
 ! D89   D(35,13,18,20)        106.9264         Frozen                          !
 ! D90   D(35,13,18,22)       -129.7265         Frozen                          !
 ! D91   D(35,13,18,43)        -14.6269         Frozen                          !
 ! D92   D(36,13,18,20)         -9.536          Frozen                          !
 ! D93   D(36,13,18,22)        113.8111         Frozen                          !
 ! D94   D(36,13,18,43)       -131.0893         Frozen                          !
 ! D95   D(12,14,22,15)        -62.1405         Frozen                          !
 ! D96   D(12,14,22,18)         60.1554         Frozen                          !
 ! D97   D(12,14,22,48)       -179.4846         Frozen                          !
 ! D98   D(37,14,22,15)        175.4644         Frozen                          !
 ! D99   D(37,14,22,18)        -62.2397         Frozen                          !
 ! D100  D(37,14,22,48)         58.1203         Frozen                          !
 ! D101  D(38,14,22,15)         58.9159         Frozen                          !
 ! D102  D(38,14,22,18)       -178.7882         Frozen                          !
 ! D103  D(38,14,22,48)        -58.4282         Frozen                          !
 ! D104  D(22,15,16,11)        124.5309         Frozen                          !
 ! D105  D(22,15,16,17)         -0.979          Frozen                          !
 ! D106  D(22,15,16,41)       -119.2651         Frozen                          !
 ! D107  D(39,15,16,11)       -118.0679         Frozen                          !
 ! D108  D(39,15,16,17)        116.4221         Frozen                          !
 ! D109  D(39,15,16,41)         -1.864          Frozen                          !
 ! D110  D(40,15,16,11)          5.3658         Frozen                          !
 ! D111  D(40,15,16,17)       -120.1442         Frozen                          !
 ! D112  D(40,15,16,41)        121.5697         Frozen                          !
 ! D113  D(16,15,22,14)         62.6578         Frozen                          !
 ! D114  D(16,15,22,18)        -61.7639         Frozen                          !
 ! D115  D(16,15,22,48)       -179.6707         Frozen                          !
 ! D116  D(39,15,22,14)        -57.8067         Frozen                          !
 ! D117  D(39,15,22,18)        177.7715         Frozen                          !
 ! D118  D(39,15,22,48)         59.8647         Frozen                          !
 ! D119  D(40,15,22,14)       -173.7118         Frozen                          !
 ! D120  D(40,15,22,18)         61.8664         Frozen                          !
 ! D121  D(40,15,22,48)        -56.0404         Frozen                          !
 ! D122  D(11,16,17,12)        176.3083         Frozen                          !
 ! D123  D(11,16,17,13)        -66.8584         Frozen                          !
 ! D124  D(11,16,17,42)         55.8554         Frozen                          !
 ! D125  D(15,16,17,12)        -58.6818         Frozen                          !
 ! D126  D(15,16,17,13)         58.1515         Frozen                          !
 ! D127  D(15,16,17,42)       -179.1347         Frozen                          !
 ! D128  D(41,16,17,12)         59.3102         Frozen                          !
 ! D129  D(41,16,17,13)        176.1434         Frozen                          !
 ! D130  D(41,16,17,42)        -61.1427         Frozen                          !
 ! D131  D(13,18,20,7)        -162.6411         Frozen                          !
 ! D132  D(13,18,20,23)        -42.5696         Frozen                          !
 ! D133  D(13,18,20,47)         73.9759         Frozen                          !
 ! D134  D(22,18,20,7)          75.5825         Frozen                          !
 ! D135  D(22,18,20,23)       -164.346          Frozen                          !
 ! D136  D(22,18,20,47)        -47.8005         Frozen                          !
 ! D137  D(43,18,20,7)         -39.9969         Frozen                          !
 ! D138  D(43,18,20,23)         80.0747         Frozen                          !
 ! D139  D(43,18,20,47)       -163.3799         Frozen                          !
 ! D140  D(13,18,22,14)        -55.1602         Frozen                          !
 ! D141  D(13,18,22,15)         67.2318         Frozen                          !
 ! D142  D(13,18,22,48)       -175.3625         Frozen                          !
 ! D143  D(20,18,22,14)         70.0105         Frozen                          !
 ! D144  D(20,18,22,15)       -167.5976         Frozen                          !
 ! D145  D(20,18,22,48)        -50.1918         Frozen                          !
 ! D146  D(43,18,22,14)       -173.0155         Frozen                          !
 ! D147  D(43,18,22,15)        -50.6236         Frozen                          !
 ! D148  D(43,18,22,48)         66.7822         Frozen                          !
 ! D149  D(44,19,24,9)        -179.9992         Frozen                          !
 ! D150  D(45,19,24,9)          59.2071         Frozen                          !
 ! D151  D(46,19,24,9)         -60.4017         Frozen                          !
 ! D152  D(7,20,23,49)          59.9987         Frozen                          !
 ! D153  D(18,20,23,49)        -62.5282         Frozen                          !
 ! D154  D(47,20,23,49)        179.9492         Frozen                          !
 --------------------------------------------------------------------------------
 Trust Radius=3.00D-01 FncErr=1.00D-07 GrdErr=1.00D-06 EigMax=2.50D+02 EigMin=1.00D-04
 Number of steps in this run=    294 maximum allowed number of steps=    294.
 GradGradGradGradGradGradGradGradGradGradGradGradGradGradGradGradGradGrad

                          Input orientation:                          
 ---------------------------------------------------------------------
 Center     Atomic      Atomic             Coordinates (Angstroms)
 Number     Number       Type             X           Y           Z
 ---------------------------------------------------------------------
      1          6           0       11.946100   40.439301   33.035599
      2          6           0       12.003200   41.707699   32.452702
      3          6           0       11.216000   37.057800   30.733000
      4          6           0       11.569300   40.727798   30.301300
      5          6           0       11.414500   37.006401   32.097801
      6          6           0       11.511900   39.452202   30.887899
      7          6           0       11.266700   38.303299   30.123800
      8          6           0       11.702300   39.297699   32.277100
      9          6           0       11.814500   41.852501   31.083799
     10          6           0        7.349300   35.178799   27.716700
     11          6           0        6.843700   36.072601   26.860001
     12          6           0        8.414800   39.530800   26.206499
     13          6           0        9.617400   37.424702   26.723600
     14          6           0        8.570900   39.972801   27.660999
     15          6           0        7.238500   38.013699   28.408001
     16          6           0        7.087500   37.550201   26.947100
     17          6           0        8.318600   37.996201   26.118700
     18          6           0        9.707500   37.773300   28.216801
     19          6           0       12.123900   44.192200   31.377100
     20          6           0       11.049800   38.360600   28.630600
     21          7           0       11.653800   38.090199   32.870998
     22          7           0        8.571700   38.737801   28.542601
     23          8           0       12.092200   37.622200   27.996500
     24          8           0       11.868900   43.085602   30.512600
     25          1           0       12.096700   40.353100   34.110199
     26          1           0       12.196200   42.576199   33.076500
     27          1           0       11.028400   36.152000   30.167000
     28          1           0       11.424500   40.862701   29.231701
     29          1           0       11.385600   36.060398   32.628601
     30          1           0        7.135000   34.122299   27.598400
     31          1           0        7.981200   35.480801   28.544800
     32          1           0        6.215800   35.720901   26.046101
     33          1           0        7.520900   39.994499   25.772100
     34          1           0        9.265600   39.894100   25.617300
     35          1           0        9.652500   36.335602   26.601101
     36          1           0       10.483400   37.816101   26.174900
     37          1           0        9.502500   40.517799   27.835800
     38          1           0        7.738100   40.605099   27.987000
     39          1           0        6.457900   38.729401   28.688999
     40          1           0        7.239500   37.199402   29.141199
     41          1           0        6.193300   38.030998   26.528799
     42          1           0        8.222300   37.688301   25.071199
     43          1           0        9.524700   36.878399   28.824499
     44          1           0       12.141200   45.115501   30.792999
     45          1           0       13.083400   44.048901   31.880501
     46          1           0       11.328300   44.250801   32.123600
     47          1           0       11.112100   39.391602   28.262800
     48          1           0        8.668200   39.039501   29.521700
     49          1           0       12.027900   36.713902   28.329399
 ---------------------------------------------------------------------
                    Distance matrix (angstroms):
                    1          2          3          4          5
     1  C    0.000000
     2  C    1.397091   0.000000
     3  C    4.155666   5.019823   0.000000
     4  C    2.775176   2.403540   3.712152   0.000000
     5  C    3.598175   4.751287   1.380118   4.135236   0.000000
     6  C    2.403229   2.788772   2.417584   1.405183   2.730438
     7  C    3.674597   4.190007   1.387430   2.449749   2.366531
     8  C    1.392126   2.435052   2.763671   2.442674   2.316252
     9  C    2.413292   1.389414   4.844628   1.391900   4.967181
    10  C    8.780327   9.312091   5.251674   7.435049   6.249802
    11  C    9.123627   9.468531   5.923491   7.472931   7.014182
    12  C    7.741580   7.525328   5.869554   5.305758   7.076597
    13  C    7.372380   7.540472   4.331908   5.245979   5.682128
    14  C    6.363641   6.144182   4.993093   4.065909   6.047380
    15  C    7.032759   7.260001   4.705302   5.450389   5.662883
    16  C    8.307991   8.471160   5.623167   6.436949   6.748953
    17  C    8.183580   8.214078   5.528769   5.960102   6.805435
    18  C    5.944721   6.220337   3.019730   4.067001   4.308613
    19  C    4.106882   2.710025   7.220721   3.669742   7.256608
    20  C    4.952612   5.169188   2.478910   2.943594   3.740099
    21  N    2.372933   3.658327   2.414239   3.683397   1.352670
    22  N    5.871006   5.990357   3.822640   4.004837   4.870185
    23  O    5.774939   6.046235   2.928260   3.902597   4.202280
    24  O    3.657102   2.383411   6.067063   2.386137   6.298891
    25  H    1.088520   2.142657   4.800011   3.863452   3.964283
    26  H    2.151873   1.086584   6.074991   3.392834   5.708902
    27  H    5.239464   6.086087   1.084446   4.609614   2.146408
    28  H    3.862768   3.379906   4.095686   1.087754   4.804756
    29  H    4.433351   5.683694   2.148692   5.218687   1.085129
    30  H    9.623634  10.237281   5.924310   8.402458   6.846662
    31  H    7.776531   8.379883   4.211778   6.594750   5.170959
    32  H   10.195721  10.506202   6.982573   8.475594   8.080969
    33  H    8.516963   8.225358   6.847517   6.118899   8.006456
    34  H    7.906547   7.583292   6.165959   5.286014   7.413061
    35  H    7.968922   8.284108   4.476460   6.054501   5.811052
    36  H    7.489316   7.540897   4.678461   5.165688   6.050068
    37  H    5.745890   5.383786   4.827157   3.224043   5.843827
    38  H    6.574428   6.272902   5.676234   4.477626   6.585228
    39  H    7.206735   7.333899   5.441664   5.720097   6.257519
    40  H    6.914867   7.347355   4.285608   5.704610   5.119509
    41  H    9.012939   9.075555   6.621928   7.099709   7.702241
    42  H    9.212294   9.216146   6.435508   6.913386   7.747791
    43  H    6.023003   6.529086   2.556376   4.602087   3.781830
    44  H    5.189814   3.792990   8.110866   4.452053   8.245490
    45  H    3.956882   2.641112   7.326625   3.976946   7.240805
    46  H    3.967487   2.651635   7.327049   3.973715   7.244959
    47  H    4.957100   4.869666   3.399899   2.479906   4.526352
    48  H    5.005153   5.179988   3.447560   3.445940   4.279247
    49  H    6.002800   6.476129   2.560224   4.495561   3.829186
                    6          7          8          9         10
     6  C    0.000000
     7  C    1.401409   0.000000
     8  C    1.410675   2.411489   0.000000
     9  C    2.427216   3.717327   2.821980   0.000000
    10  C    6.756161   5.559016   7.530684   8.707104   0.000000
    11  C    7.031199   5.932228   7.959410   8.715306   1.337328
    12  C    5.613708   4.998534   6.907546   6.382500   4.728204
    13  C    5.004126   3.879882   6.220634   6.591205   3.342844
    14  C    4.396975   4.014967   5.618702   5.076394   4.947511
    15  C    5.145982   4.387964   6.045171   6.544927   2.920074
    16  C    6.222766   5.303234   7.263541   7.613580   2.506865
    17  C    5.921348   4.982613   7.146273   7.193370   3.380961
    18  C    3.634465   2.519653   4.773788   5.412856   3.541559
    19  C    4.804315   6.081505   4.994386   2.378223  10.836823
    20  C    2.549614   1.509959   3.821109   4.335473   4.965156
    21  N    2.409952   2.782509   1.346523   4.168312   7.319273
    22  N    3.828259   3.154680   4.905163   5.164765   3.852644
    23  O    3.470712   2.381334   4.613335   5.244424   5.342621
    24  O    3.670135   4.835725   4.182036   1.360061   9.526876
    25  H    3.396590   4.558724   2.151668   3.389238   9.496738
    26  H    3.875255   5.276370   3.410504   2.154133  10.341249
    27  H    3.412448   2.164888   3.847348   5.827022   4.526242
    28  H    2.177186   2.715010   3.435238   2.135901   7.156062
    29  H    3.814489   3.364338   3.271692   6.009894   6.418388
    30  H    7.641068   6.397605   8.338779   9.685130   1.084487
    31  H    5.807580   4.610233   6.507331   7.857434   1.084552
    32  H    8.087910   6.986272   9.039940   9.711867   2.090358
    33  H    6.511034   5.985689   7.764320   7.078228   5.196334
    34  H    5.746334   5.181080   7.116610   6.341517   5.505792
    35  H    5.616690   4.345904   6.722549   7.430007   2.808467
    36  H    5.093820   4.055210   6.396694   6.493200   4.376653
    37  H    3.806375   3.640241   5.104205   4.204316   5.758071
    38  H    4.897546   4.723898   5.985744   5.269081   5.446922
    39  H    5.558823   5.036345   6.379746   6.646953   3.787708
    40  H    5.136095   4.289806   5.844083   6.808498   2.474690
    41  H    7.022042   6.223951   8.062045   8.182286   3.298861
    42  H    6.911354   5.930883   8.162449   8.148363   3.749454
    43  H    3.851110   2.598670   4.745040   5.923623   2.974596
    44  H    5.698946   6.900628   6.020134   3.292183  11.452684
    45  H    4.958277   6.276810   4.963733   2.658762  11.353231
    46  H    4.958550   6.275012   4.969573   2.658838  10.842252
    47  H    2.656060   2.161394   4.058541   3.808861   5.674910
    48  H    3.181737   2.767078   4.106660   4.500258   4.461227
    49  H    3.782918   2.515051   4.729309   5.834163   4.961979
                   11         12         13         14         15
    11  C    0.000000
    12  C    3.854161   0.000000
    13  C    3.088720   2.479776   0.000000
    14  C    4.340090   1.528170   2.909757   0.000000
    15  C    2.513967   2.920940   2.973767   2.484227   0.000000
    16  C    1.500109   2.496595   2.542852   2.929013   1.540085
    17  C    2.534777   1.540116   1.542529   2.519780   2.531367
    18  C    3.596475   2.966681   1.535997   2.537436   2.488033
    19  C   10.687029   7.888041   8.587004   6.651056   8.417634
    20  C    5.105021   3.766810   2.562094   3.111955   3.833523
    21  N    7.958634   7.548642   6.510016   6.339760   6.278461
    22  N    3.594498   2.472011   2.475173   1.517382   1.523110
    23  O    5.589243   4.513328   2.789967   4.247051   4.886820
    24  O    9.368901   6.565815   7.174368   5.357048   7.182906
    25  H    9.923812   8.757913   8.323718   7.359896   7.847928
    26  H   10.468567   8.412512   8.575982   7.017701   8.196955
    27  H    5.334254   5.825183   3.932899   5.188243   4.574204
    28  H    7.039442   4.470358   4.623421   3.376694   5.130096
    29  H    7.342054   7.881163   6.313232   6.921452   6.231155
    30  H    2.105651   5.729499   4.222967   6.024459   3.976073
    31  H    2.117234   4.696611   3.126127   4.615941   2.643083
    32  H    1.086455   4.401893   3.864301   5.121820   3.446942
    33  H    4.125944   1.096712   3.450293   2.161229   3.309274
    34  H    4.691882   1.096815   2.728661   2.159979   3.928493
    35  H    2.832941   3.449189   1.096529   3.939855   3.450839
    36  H    4.093479   2.687061   1.097370   3.243070   3.944003
    37  H    5.270786   2.193600   3.288988   1.093369   3.423978
    38  H    4.755378   2.186830   3.904212   1.095278   2.672489
    39  H    3.248486   3.261059   3.943028   2.658495   1.095685
    40  H    2.574918   3.928003   3.398522   3.413995   1.095746
    41  H    2.089984   2.699694   3.482815   3.271920   2.150382
    42  H    2.776839   2.172732   2.178582   3.470955   3.493994
    43  H    3.419989   3.888577   2.172744   3.440754   2.586327
    44  H   11.194017   8.130862   9.059689   7.000274   8.953227
    45  H   11.303125   8.625738   9.082224   7.401449   9.090917
    46  H   10.709812   8.110424   8.870333   6.768999   8.332682
    47  H    5.585951   3.394581   2.910663   2.675379   4.113937
    48  H    4.383599   3.360974   3.367183   2.083920   2.082459
    49  H    5.426447   5.049367   2.982338   4.797711   4.963265
                   16         17         18         19         20
    16  C    0.000000
    17  C    1.549442   0.000000
    18  C    2.919985   2.526016   0.000000
    19  C    9.439617   8.973376   7.551739   0.000000
    20  C    4.380724   3.728523   1.522472   6.534869   0.000000
    21  N    7.499017   7.531661   5.054707   6.299773   4.291726
    22  N    2.481706   2.547416   1.525270   7.099505   2.508187
    23  O    5.114044   4.231556   2.399616   7.388800   1.426154
    24  O    8.137275   7.603485   6.177612   1.427216   5.151552
    25  H    9.179233   9.148392   6.862637   4.712670   5.923855
    26  H    9.430218   9.188207   7.271736   2.346198   6.233100
    27  H    5.277633   5.208918   2.859487   8.204223   2.690520
    28  H    5.916217   5.249211   3.677296   4.022121   2.600429
    29  H    7.278230   7.452022   5.021358   8.260602   4.624684
    30  H    3.489550   4.312486   4.508878  11.856247   5.861253
    31  H    2.762926   3.510988   2.888468  10.053475   4.209146
    32  H    2.217656   3.099037   4.595242  11.622741   6.084012
    33  H    2.746462   2.179370   3.961251   8.379996   4.826363
    34  H    3.465018   2.179503   3.383855   7.734264   3.822953
    35  H    2.859054   2.183939   2.163443   9.520720   3.189346
    36  H    3.492726   2.173006   2.184768   8.390993   2.578323
    37  H    3.927932   3.272386   2.778392   5.737052   2.771164
    38  H    3.291971   3.260962   3.456939   6.602675   4.052080
    39  H    2.195705   3.256720   3.420088   8.316948   4.607057
    40  H    2.227158   3.306788   2.697201   8.817927   4.015903
    41  H    1.098060   2.164785   3.907091   9.830486   5.302056
    42  H    2.196781   1.096054   3.479634   9.863446   4.595223
    43  H    3.148950   3.166308   1.097069   8.170881   2.135520
    44  H    9.877479   9.335190   8.152767   1.092684   7.176058
    45  H   10.125333   9.619607   8.012650   1.092972   6.859603
    46  H    9.469877   9.178079   7.736155   1.092555   6.853691
    47  H    4.617275   3.787869   2.143343   5.811054   1.096414
    48  H    3.368262   3.576465   2.094319   6.475699   2.631916
    49  H    5.197855   4.504485   2.553284   8.076053   1.938818
                   21         22         23         24         25
    21  N    0.000000
    22  N    5.352920   0.000000
    23  O    4.916498   3.733191   0.000000
    24  O    5.528323   5.801362   6.019085   0.000000
    25  H    2.617728   6.784760   6.695906   4.523403   0.000000
    26  H    4.523342   6.958918   7.096430   2.634426   2.453692
    27  H    3.385166   3.919236   2.829175   6.992905   5.859976
    28  H    4.580811   3.623331   3.531627   2.603744   4.950888
    29  H    2.061742   5.637545   4.939116   7.352859   4.596530
    30  H    7.997754   4.925290   6.081252  10.547188  10.288094
    31  H    6.246034   3.310097   4.667606   8.764670   8.464650
    32  H    9.042380   4.569952   6.476965  10.302717  11.003269
    33  H    8.432175   3.218563   5.610039   7.136691   9.517901
    34  H    7.846891   3.221166   4.337256   6.397407   8.964103
    35  H    6.811418   3.272325   3.091053   8.110164   8.860077
    36  H    6.803139   3.179644   2.438045   6.964402   8.485757
    37  H    5.989537   2.129401   3.888041   4.399854   6.791545
    38  H    6.746174   2.119052   5.277875   5.440134   7.520270
    39  H    6.700378   2.118880   5.783665   7.181986   7.988859
    40  H    5.847304   2.121261   5.003778   7.613109   7.630804
    41  H    8.369233   3.195584   6.092478   8.580916   9.885338
    42  H    8.530743   3.643372   4.851585   8.487485  10.188997
    43  H    4.730294   2.108329   2.798371   6.846483   6.828423
    44  H    7.342377   7.647266   7.998273   2.067187   5.803987
    45  H    6.207332   7.726888   7.574327   2.067392   4.427649
    46  H    6.214304   7.128504   7.845690   2.060402   4.441744
    47  H    4.818981   2.638063   2.040170   4.390898   6.007162
    48  H    4.586151   1.029063   4.007337   5.253313   5.876604
    49  H    4.760280   4.010853   0.969516   6.737226   6.831262
                   26         27         28         29         30
    26  H    0.000000
    27  H    7.148376   0.000000
    28  H    4.279495   4.818961   0.000000
    29  H    6.581288   2.489069   5.882394   0.000000
    30  H   11.273586   5.086841   8.154784   6.864893   0.000000
    31  H    9.415264   3.516741   6.425963   5.348206   1.859370
    32  H   11.497252   6.350494   7.982275   8.376837   2.410413
    33  H    9.048639   6.810470   5.287788   8.799129   6.161739
    34  H    8.451138   6.149028   4.320062   8.267407   6.463583
    35  H    9.345922   3.826545   5.527627   6.277749   3.497302
    36  H    8.557120   4.359257   4.417179   6.748831   5.184815
    37  H    6.241632   5.179099   2.400329   6.810685   6.823770
    38  H    7.047191   5.950510   3.899383   7.450035   6.522380
    39  H    8.183893   5.451326   5.432551   6.850275   4.782600
    40  H    8.304542   4.062645   5.562569   5.536194   3.443793
    41  H    9.978279   6.336034   6.533734   8.249293   4.160381
    42  H   10.186671   6.016777   6.135200   8.352895   4.503925
    43  H    7.594824   2.142680   4.432800   4.313150   3.848386
    44  H    3.415473   9.053980   4.586678   9.270127  12.494719
    45  H    2.094371   8.337875   4.463178   8.201119  12.339258
    46  H    2.113187   8.337194   4.455508   8.206157  11.859501
    47  H    5.872703   3.758724   1.788993   5.498358   6.635081
    48  H    6.131201   3.784788   3.317431   5.090398   5.498060
    49  H    7.545185   2.165990   4.288447   4.395766   5.584911
                   31         32         33         34         35
    31  H    0.000000
    32  H    3.068840   0.000000
    33  H    5.317256   4.476830   0.000000
    34  H    5.449509   5.186592   1.754429   0.000000
    35  H    2.702202   3.535080   4.314915   3.712205   0.000000
    36  H    4.163059   4.755929   3.699199   2.472253   1.750405
    37  H    5.309273   6.084049   2.908511   2.316649   4.363227
    38  H    5.160297   5.471734   2.307767   2.907620   4.879984
    39  H    3.590910   4.011807   3.352423   4.321462   4.505004
    40  H    1.964536   3.579603   4.386637   4.876919   3.608437
    41  H    3.710034   2.360096   2.488062   3.706886   3.853007
    42  H    4.122753   2.974414   2.510333   2.500450   2.493164
    43  H    2.100929   4.473043   4.800253   4.409956   2.292261
    44  H   10.732541  12.078987   8.531193   7.894299  10.042523
    45  H   10.515307  12.270279   9.202834   8.430045   9.956813
    46  H   10.046083  11.654735   8.541309   8.097377   9.795748
    47  H    5.017611   6.508575   4.411778   3.265078   3.772375
    48  H    3.753751   5.395105   4.035817   4.041233   4.099977
    49  H    4.235884   6.322975   6.133119   5.009934   2.961866
                   36         37         38         39         40
    36  H    0.000000
    37  H    3.319627   0.000000
    38  H    4.312643   1.773017   0.000000
    39  H    4.833163   3.632617   2.376964   0.000000
    40  H    4.438709   4.223387   3.630365   1.776592   0.000000
    41  H    4.310033   4.340880   3.337477   2.285661   2.934403
    42  H    2.519338   4.157883   4.152596   4.157580   4.215426
    43  H    2.969641   3.771373   4.216828   3.584666   2.329266
    44  H    8.795248   6.070142   6.899612   8.803919   9.456201
    45  H    8.840909   6.453769   7.455961   9.076344   9.411194
    46  H    8.803764   5.971104   6.579676   8.124232   8.679587
    47  H    2.690129   2.010338   3.596181   4.720353   4.535896
    48  H    3.999091   2.392421   2.381488   2.382221   2.360493
    49  H    2.870921   4.592485   5.801813   5.934345   4.880933
                   41         42         43         44         45
    41  H    0.000000
    42  H    2.521682   0.000000
    43  H    4.206774   4.054559   0.000000
    44  H   10.185828  10.161696   8.864024   0.000000
    45  H   10.598554  10.509715   8.568523   1.791099   0.000000
    46  H    9.816108  10.121759   8.275829   1.782978   1.783322
    47  H    5.390046   4.630172   3.025150   6.342237   6.218056
    48  H    4.012439   4.672422   2.426941   7.113066   7.081809
    49  H    6.246556   5.103716   2.556989   8.756085   8.217458
                   46         47         48         49
    46  H    0.000000
    47  H    6.210019   0.000000
    48  H    6.403410   2.771543   0.000000
    49  H    8.467009   2.830760   4.256475   0.000000
 Stoichiometry    C20H25N2O2(1+)
 Framework group  C1[X(C20H25N2O2)]
 Deg. of freedom   141
 Full point group                 C1      NOp   1
 Largest Abelian subgroup         C1      NOp   1
 Largest concise Abelian subgroup C1      NOp   1
                         Standard orientation:                         
 ---------------------------------------------------------------------
 Center     Atomic      Atomic             Coordinates (Angstroms)
 Number     Number       Type             X           Y           Z
 ---------------------------------------------------------------------
      1          6           0        4.051530    1.179109   -0.815184
      2          6           0        4.434232   -0.148024   -0.605135
      3          6           0        0.302683    2.535616    0.357671
      4          6           0        2.297857   -0.594467    0.401640
      5          6           0        1.235996    3.348034   -0.253580
      6          6           0        1.913243    0.740412    0.190194
      7          6           0        0.652500    1.211646    0.580594
      8          6           0        2.799181    1.647705   -0.427817
      9          6           0        3.556448   -1.036263    0.003960
     10          6           0       -4.721351    1.540439   -0.803701
     11          6           0       -5.023414    0.238277   -0.843445
     12          6           0       -2.635854   -2.545370    0.342061
     13          6           0       -2.860111   -0.269873    1.301806
     14          6           0       -1.389707   -2.097022   -0.420439
     15          6           0       -2.742518   -0.426369   -1.665511
     16          6           0       -4.002118   -0.859397   -0.892363
     17          6           0       -3.610895   -1.366346    0.518565
     18          6           0       -1.677850    0.259168    0.476178
     19          6           0        5.230099   -2.710402   -0.224285
     20          6           0       -0.367869    0.321995    1.249432
     21          7           0        2.462446    2.933178   -0.645284
     22          7           0       -1.535140   -0.624945   -0.758499
     23          8           0       -0.625993    0.836446    2.554279
     24          8           0        3.925068   -2.329127    0.209844
     25          1           0        4.757465    1.854625   -1.294986
     26          1           0        5.420340   -0.477948   -0.920420
     27          1           0       -0.665387    2.927803    0.649311
     28          1           0        1.625724   -1.305569    0.876802
     29          1           0        1.018154    4.392014   -0.453974
     30          1           0       -5.508121    2.286033   -0.769145
     31          1           0       -3.692911    1.884767   -0.804528
     32          1           0       -6.068932   -0.057135   -0.840864
     33          1           0       -3.124099   -3.366845   -0.196058
     34          1           0       -2.344792   -2.949375    1.319336
     35          1           0       -3.534561    0.559743    1.545181
     36          1           0       -2.519609   -0.671643    2.264542
     37          1           0       -0.473289   -2.224746    0.162074
     38          1           0       -1.272805   -2.638184   -1.365484
     39          1           0       -2.578725   -1.046732   -2.553681
     40          1           0       -2.742851    0.624841   -1.974730
     41          1           0       -4.470748   -1.686326   -1.442190
     42          1           0       -4.493824   -1.693855    1.079375
     43          1           0       -1.900850    1.265456    0.100391
     44          1           0        5.395449   -3.766927    0.000154
     45          1           0        5.978052   -2.097344    0.284944
     46          1           0        5.306022   -2.553108   -1.302788
     47          1           0        0.018204   -0.696786    1.372542
     48          1           0       -0.698526   -0.328582   -1.279283
     49          1           0       -0.965588    1.736423    2.433129
 ---------------------------------------------------------------------
 Rotational constants (GHZ):           0.4156394           0.1495787           0.1260583
 Standard basis: 6-31G(d,p) (6D, 7F)
 There are   485 symmetry adapted cartesian basis functions of A   symmetry.
 There are   485 symmetry adapted basis functions of A   symmetry.
   485 basis functions,   847 primitive gaussians,   485 cartesian basis functions
    87 alpha electrons       87 beta electrons
       nuclear repulsion energy      2132.4277098630 Hartrees.
 NAtoms=   49 NActive=   49 NUniq=   49 SFac= 1.00D+00 NAtFMM=   60 NAOKFM=F Big=F
 Integral buffers will be    131072 words long.
 Raffenetti 2 integral format.
 Two-electron integral symmetry is turned on.
 One-electron integrals computed using PRISM.
 NBasis=   485 RedAO= T EigKep=  3.15D-04  NBF=   485
 NBsUse=   485 1.00D-06 EigRej= -1.00D+00 NBFU=   485
 ExpMin= 1.61D-01 ExpMax= 5.48D+03 ExpMxC= 8.25D+02 IAcc=3 IRadAn=         5 AccDes= 0.00D+00
 Harris functional with IExCor=  402 and IRadAn=       5 diagonalized for initial guess.
 HarFok:  IExCor=  402 AccDes= 0.00D+00 IRadAn=         5 IDoV= 1 UseB2=F ITyADJ=14
 ICtDFT=  3500011 ScaDFX=  1.000000  1.000000  1.000000  1.000000
 FoFCou: FMM=F IPFlag=           0 FMFlag=      100000 FMFlg1=           0
         NFxFlg=           0 DoJE=T BraDBF=F KetDBF=T FulRan=T
         wScrn=  0.000000 ICntrl=       500 IOpCl=  0 I1Cent=   200000004 NGrid=           0
         NMat0=    1 NMatS0=      1 NMatT0=    0 NMatD0=    1 NMtDS0=    0 NMtDT0=    0
 Petite list used in FoFCou.
 Requested convergence on RMS density matrix=1.00D-08 within 128 cycles.
 Requested convergence on MAX density matrix=1.00D-06.
 Requested convergence on             energy=1.00D-06.
 No special actions if energy rises.
 Integral accuracy reduced to 1.0D-05 until final iterations.
 Initial convergence to 1.0D-05 achieved.  Increase integral accuracy.
 SCF Done:  E(RB3LYP) =  -1036.88528277     A.U. after   14 cycles
            NFock= 14  Conv=0.60D-08     -V/T= 2.0091

 **********************************************************************

            Population analysis using the SCF density.

 **********************************************************************

 Orbital symmetries:
       Occupied  (A) (A) (A) (A) (A) (A) (A) (A) (A) (A) (A) (A)
                 (A) (A) (A) (A) (A) (A) (A) (A) (A) (A) (A) (A)
                 (A) (A) (A) (A) (A) (A) (A) (A) (A) (A) (A) (A)
                 (A) (A) (A) (A) (A) (A) (A) (A) (A) (A) (A) (A)
                 (A) (A) (A) (A) (A) (A) (A) (A) (A) (A) (A) (A)
                 (A) (A) (A) (A) (A) (A) (A) (A) (A) (A) (A) (A)
                 (A) (A) (A) (A) (A) (A) (A) (A) (A) (A) (A) (A)
                 (A) (A) (A)
       Virtual   (A) (A) (A) (A) (A) (A) (A) (A) (A) (A) (A) (A)
                 (A) (A) (A) (A) (A) (A) (A) (A) (A) (A) (A) (A)
                 (A) (A) (A) (A) (A) (A) (A) (A) (A) (A) (A) (A)
                 (A) (A) (A) (A) (A) (A) (A) (A) (A) (A) (A) (A)
                 (A) (A) (A) (A) (A) (A) (A) (A) (A) (A) (A) (A)
                 (A) (A) (A) (A) (A) (A) (A) (A) (A) (A) (A) (A)
                 (A) (A) (A) (A) (A) (A) (A) (A) (A) (A) (A) (A)
                 (A) (A) (A) (A) (A) (A) (A) (A) (A) (A) (A) (A)
                 (A) (A) (A) (A) (A) (A) (A) (A) (A) (A) (A) (A)
                 (A) (A) (A) (A) (A) (A) (A) (A) (A) (A) (A) (A)
                 (A) (A) (A) (A) (A) (A) (A) (A) (A) (A) (A) (A)
                 (A) (A) (A) (A) (A) (A) (A) (A) (A) (A) (A) (A)
                 (A) (A) (A) (A) (A) (A) (A) (A) (A) (A) (A) (A)
                 (A) (A) (A) (A) (A) (A) (A) (A) (A) (A) (A) (A)
                 (A) (A) (A) (A) (A) (A) (A) (A) (A) (A) (A) (A)
                 (A) (A) (A) (A) (A) (A) (A) (A) (A) (A) (A) (A)
                 (A) (A) (A) (A) (A) (A) (A) (A) (A) (A) (A) (A)
                 (A) (A) (A) (A) (A) (A) (A) (A) (A) (A) (A) (A)
                 (A) (A) (A) (A) (A) (A) (A) (A) (A) (A) (A) (A)
                 (A) (A) (A) (A) (A) (A) (A) (A) (A) (A) (A) (A)
                 (A) (A) (A) (A) (A) (A) (A) (A) (A) (A) (A) (A)
                 (A) (A) (A) (A) (A) (A) (A) (A) (A) (A) (A) (A)
                 (A) (A) (A) (A) (A) (A) (A) (A) (A) (A) (A) (A)
                 (A) (A) (A) (A) (A) (A) (A) (A) (A) (A) (A) (A)
                 (A) (A) (A) (A) (A) (A) (A) (A) (A) (A) (A) (A)
                 (A) (A) (A) (A) (A) (A) (A) (A) (A) (A) (A) (A)
                 (A) (A) (A) (A) (A) (A) (A) (A) (A) (A) (A) (A)
                 (A) (A) (A) (A) (A) (A) (A) (A) (A) (A) (A) (A)
                 (A) (A) (A) (A) (A) (A) (A) (A) (A) (A) (A) (A)
                 (A) (A) (A) (A) (A) (A) (A) (A) (A) (A) (A) (A)
                 (A) (A) (A) (A) (A) (A) (A) (A) (A) (A) (A) (A)
                 (A) (A) (A) (A) (A) (A) (A) (A) (A) (A) (A) (A)
                 (A) (A) (A) (A) (A) (A) (A) (A) (A) (A) (A) (A)
                 (A) (A)
 The electronic state is 1-A.
 Alpha  occ. eigenvalues --  -19.27917 -19.27679 -14.60938 -14.42966 -10.39530
 Alpha  occ. eigenvalues --  -10.39405 -10.39239 -10.38285 -10.35528 -10.34502
 Alpha  occ. eigenvalues --  -10.34229 -10.33518 -10.32918 -10.32652 -10.32406
 Alpha  occ. eigenvalues --  -10.32384 -10.32069 -10.31789 -10.31233 -10.31146
 Alpha  occ. eigenvalues --  -10.30746 -10.29589 -10.29414 -10.29283  -1.17076
 Alpha  occ. eigenvalues --   -1.16369  -1.15445  -1.04503  -0.98008  -0.95886
 Alpha  occ. eigenvalues --   -0.94885  -0.94229  -0.92258  -0.87926  -0.86413
 Alpha  occ. eigenvalues --   -0.85316  -0.83533  -0.80981  -0.79723  -0.79367
 Alpha  occ. eigenvalues --   -0.77942  -0.75023  -0.73292  -0.72533  -0.70351
 Alpha  occ. eigenvalues --   -0.69340  -0.67884  -0.66562  -0.65508  -0.64115
 Alpha  occ. eigenvalues --   -0.63352  -0.62952  -0.60844  -0.59964  -0.59037
 Alpha  occ. eigenvalues --   -0.58601  -0.58103  -0.57333  -0.56442  -0.56332
 Alpha  occ. eigenvalues --   -0.56121  -0.55563  -0.55049  -0.54858  -0.54517
 Alpha  occ. eigenvalues --   -0.53473  -0.52805  -0.51894  -0.51637  -0.50683
 Alpha  occ. eigenvalues --   -0.49604  -0.49471  -0.48215  -0.47673  -0.46725
 Alpha  occ. eigenvalues --   -0.46393  -0.46149  -0.45857  -0.45392  -0.42359
 Alpha  occ. eigenvalues --   -0.41746  -0.40683  -0.40067  -0.38455  -0.35300
 Alpha  occ. eigenvalues --   -0.34979  -0.31541
 Alpha virt. eigenvalues --   -0.16697  -0.12077  -0.11195  -0.10835  -0.08803
 Alpha virt. eigenvalues --   -0.07002  -0.06887  -0.05981  -0.04554  -0.03116
 Alpha virt. eigenvalues --   -0.02743  -0.01790  -0.01338  -0.00789  -0.00114
 Alpha virt. eigenvalues --    0.01060   0.01656   0.01930   0.02299   0.02514
 Alpha virt. eigenvalues --    0.02953   0.03734   0.04433   0.04986   0.05334
 Alpha virt. eigenvalues --    0.05925   0.06493   0.06887   0.07019   0.07365
 Alpha virt. eigenvalues --    0.08085   0.08358   0.08975   0.09575   0.10562
 Alpha virt. eigenvalues --    0.10747   0.11338   0.12378   0.12519   0.13043
 Alpha virt. eigenvalues --    0.14253   0.15697   0.16308   0.16744   0.17656
 Alpha virt. eigenvalues --    0.19267   0.19604   0.20416   0.22704   0.23465
 Alpha virt. eigenvalues --    0.24075   0.26149   0.27485   0.29186   0.32886
 Alpha virt. eigenvalues --    0.33545   0.35431   0.35738   0.36069   0.36752
 Alpha virt. eigenvalues --    0.38549   0.39776   0.40040   0.40901   0.41506
 Alpha virt. eigenvalues --    0.42054   0.42576   0.42669   0.43358   0.44032
 Alpha virt. eigenvalues --    0.44481   0.44975   0.46161   0.46737   0.47035
 Alpha virt. eigenvalues --    0.47219   0.47467   0.48530   0.48911   0.49539
 Alpha virt. eigenvalues --    0.50255   0.50638   0.50872   0.51305   0.52201
 Alpha virt. eigenvalues --    0.52841   0.52966   0.53149   0.54017   0.54759
 Alpha virt. eigenvalues --    0.55180   0.56943   0.57423   0.57609   0.58434
 Alpha virt. eigenvalues --    0.59017   0.60895   0.61521   0.63389   0.63856
 Alpha virt. eigenvalues --    0.64223   0.64498   0.66108   0.66335   0.66623
 Alpha virt. eigenvalues --    0.67912   0.68683   0.69151   0.69408   0.70281
 Alpha virt. eigenvalues --    0.71018   0.71281   0.71686   0.72520   0.73172
 Alpha virt. eigenvalues --    0.73690   0.74123   0.74372   0.75231   0.75617
 Alpha virt. eigenvalues --    0.76467   0.76664   0.76876   0.77239   0.77956
 Alpha virt. eigenvalues --    0.78472   0.79018   0.80271   0.80773   0.81893
 Alpha virt. eigenvalues --    0.82962   0.83241   0.83732   0.84132   0.85119
 Alpha virt. eigenvalues --    0.86650   0.87860   0.89770   0.90123   0.90411
 Alpha virt. eigenvalues --    0.91688   0.92155   0.93084   0.93518   0.93805
 Alpha virt. eigenvalues --    0.95510   0.97227   0.99089   0.99722   1.00834
 Alpha virt. eigenvalues --    1.01126   1.04311   1.05816   1.07405   1.09763
 Alpha virt. eigenvalues --    1.10091   1.11872   1.12255   1.14171   1.15027
 Alpha virt. eigenvalues --    1.15421   1.16714   1.17074   1.19248   1.20599
 Alpha virt. eigenvalues --    1.21250   1.22133   1.22659   1.25521   1.26560
 Alpha virt. eigenvalues --    1.27799   1.28606   1.29512   1.30675   1.32084
 Alpha virt. eigenvalues --    1.33216   1.34449   1.35163   1.35696   1.35977
 Alpha virt. eigenvalues --    1.37427   1.37688   1.38375   1.39389   1.40150
 Alpha virt. eigenvalues --    1.42892   1.45424   1.46667   1.47313   1.48645
 Alpha virt. eigenvalues --    1.52487   1.54291   1.55820   1.57194   1.57708
 Alpha virt. eigenvalues --    1.58232   1.59896   1.60836   1.62078   1.63879
 Alpha virt. eigenvalues --    1.64928   1.65666   1.66541   1.67499   1.67778
 Alpha virt. eigenvalues --    1.68514   1.69465   1.70655   1.71297   1.72153
 Alpha virt. eigenvalues --    1.72653   1.74099   1.74717   1.75311   1.75465
 Alpha virt. eigenvalues --    1.76147   1.77284   1.77903   1.78729   1.78850
 Alpha virt. eigenvalues --    1.80643   1.80771   1.80977   1.81930   1.82216
 Alpha virt. eigenvalues --    1.82533   1.84612   1.85083   1.85667   1.86116
 Alpha virt. eigenvalues --    1.87253   1.87586   1.88864   1.89269   1.89852
 Alpha virt. eigenvalues --    1.91126   1.91441   1.92165   1.93348   1.94085
 Alpha virt. eigenvalues --    1.94679   1.94945   1.96181   1.98005   1.98854
 Alpha virt. eigenvalues --    2.01675   2.02407   2.03195   2.03843   2.04622
 Alpha virt. eigenvalues --    2.06219   2.06870   2.08522   2.09843   2.12049
 Alpha virt. eigenvalues --    2.12762   2.13953   2.14345   2.15396   2.15545
 Alpha virt. eigenvalues --    2.16624   2.16939   2.17835   2.19288   2.20026
 Alpha virt. eigenvalues --    2.20820   2.21148   2.22579   2.23270   2.23961
 Alpha virt. eigenvalues --    2.24600   2.25072   2.27312   2.27910   2.28581
 Alpha virt. eigenvalues --    2.29598   2.29887   2.30397   2.30824   2.31546
 Alpha virt. eigenvalues --    2.32403   2.33748   2.34424   2.35473   2.35587
 Alpha virt. eigenvalues --    2.36534   2.37029   2.39631   2.39992   2.41145
 Alpha virt. eigenvalues --    2.41379   2.42860   2.43450   2.44815   2.45147
 Alpha virt. eigenvalues --    2.45811   2.46991   2.48052   2.48741   2.49327
 Alpha virt. eigenvalues --    2.50512   2.50988   2.51685   2.52224   2.54132
 Alpha virt. eigenvalues --    2.54223   2.55474   2.56051   2.57033   2.57394
 Alpha virt. eigenvalues --    2.58023   2.59204   2.60132   2.61248   2.61474
 Alpha virt. eigenvalues --    2.61904   2.62987   2.64335   2.64566   2.65280
 Alpha virt. eigenvalues --    2.65948   2.66566   2.66858   2.67782   2.68531
 Alpha virt. eigenvalues --    2.69613   2.70917   2.72421   2.73232   2.74241
 Alpha virt. eigenvalues --    2.75770   2.75958   2.78555   2.80029   2.81076
 Alpha virt. eigenvalues --    2.83391   2.84187   2.86409   2.87807   2.89134
 Alpha virt. eigenvalues --    2.92079   2.93892   2.94719   2.96162   3.00012
 Alpha virt. eigenvalues --    3.06422   3.08108   3.08886   3.12708   3.14261
 Alpha virt. eigenvalues --    3.15374   3.16136   3.18662   3.18803   3.20648
 Alpha virt. eigenvalues --    3.22790   3.23502   3.24924   3.25941   3.27120
 Alpha virt. eigenvalues --    3.28291   3.28856   3.31615   3.31663   3.33608
 Alpha virt. eigenvalues --    3.34400   3.36036   3.36513   3.37541   3.39733
 Alpha virt. eigenvalues --    3.44241   3.54741   3.62731   3.69261   3.85703
 Alpha virt. eigenvalues --    3.97263   4.00299   4.04890   4.07353   4.11349
 Alpha virt. eigenvalues --    4.16825   4.17823   4.21551   4.30794   4.33288
 Alpha virt. eigenvalues --    4.33569   4.35076   4.38699   4.40958   4.41464
 Alpha virt. eigenvalues --    4.42655   4.51089   4.54683   4.63448   4.69027
 Alpha virt. eigenvalues --    4.73429   4.82044   4.95429
          Condensed to atoms (all electrons):
               1          2          3          4          5          6
     1  C    4.981123   0.481300   0.000985  -0.054385   0.004622  -0.042622
     2  C    0.481300   5.064687   0.000012  -0.067885  -0.000187  -0.040973
     3  C    0.000985   0.000012   5.095757   0.011835   0.443477  -0.021767
     4  C   -0.054385  -0.067885   0.011835   5.259174  -0.000009   0.389114
     5  C    0.004622  -0.000187   0.443477  -0.000009   4.730650  -0.037364
     6  C   -0.042622  -0.040973  -0.021767   0.389114  -0.037364   4.934250
     7  C    0.012588   0.000072   0.472947  -0.088503  -0.029469   0.425748
     8  C    0.463200  -0.017382  -0.048495  -0.034392  -0.049479   0.386906
     9  C    0.002185   0.427988  -0.000269   0.497127   0.000014   0.016880
    10  C   -0.000000   0.000000  -0.000017   0.000000  -0.000000  -0.000000
    11  C    0.000000  -0.000000  -0.000000  -0.000000   0.000000   0.000000
    12  C   -0.000000  -0.000000  -0.000004   0.000037  -0.000000  -0.000000
    13  C   -0.000000   0.000000   0.000172   0.000002  -0.000005  -0.000181
    14  C   -0.000000   0.000000   0.000013  -0.001073   0.000000   0.000185
    15  C    0.000000  -0.000000  -0.000144  -0.000003  -0.000002   0.000028
    16  C    0.000000   0.000000   0.000006  -0.000000   0.000000  -0.000001
    17  C   -0.000000  -0.000000  -0.000007  -0.000001   0.000000  -0.000002
    18  C    0.000004   0.000001  -0.017045  -0.000758   0.000134   0.004819
    19  C    0.000985  -0.003790  -0.000000   0.003100  -0.000000   0.000026
    20  C   -0.000194  -0.000024  -0.065445  -0.020672   0.006277  -0.038794
    21  N   -0.082902   0.005890  -0.021995   0.011933   0.478898  -0.050467
    22  N    0.000000  -0.000000  -0.000266   0.000209   0.000007  -0.000939
    23  O    0.000000   0.000000  -0.005956   0.000001   0.000287   0.002963
    24  O    0.004265  -0.063605   0.000000  -0.048770  -0.000000   0.001887
    25  H    0.355988  -0.035867   0.000010   0.000389   0.000245   0.006354
    26  H   -0.027599   0.370636   0.000000   0.004772   0.000002   0.000483
    27  H    0.000012  -0.000000   0.352251  -0.000101  -0.020028   0.004377
    28  H   -0.000290   0.008402  -0.000117   0.340738   0.000013  -0.048155
    29  H   -0.000365   0.000004  -0.062772   0.000039   0.389758   0.001762
    30  H   -0.000000  -0.000000   0.000000  -0.000000   0.000000   0.000000
    31  H    0.000000  -0.000000  -0.000112   0.000000  -0.000002   0.000000
    32  H   -0.000000   0.000000  -0.000000   0.000000  -0.000000  -0.000000
    33  H   -0.000000  -0.000000   0.000000  -0.000000   0.000000   0.000000
    34  H    0.000000   0.000000   0.000000   0.000001  -0.000000  -0.000001
    35  H   -0.000000   0.000000  -0.000062  -0.000000  -0.000001   0.000006
    36  H   -0.000000  -0.000000  -0.000005   0.000005  -0.000000  -0.000028
    37  H   -0.000002   0.000000  -0.000036   0.001683   0.000001   0.000432
    38  H    0.000000   0.000000   0.000002   0.000004  -0.000000  -0.000018
    39  H    0.000000  -0.000000   0.000002  -0.000000  -0.000000  -0.000001
    40  H    0.000000   0.000000   0.000107  -0.000000  -0.000000  -0.000001
    41  H   -0.000000  -0.000000  -0.000000  -0.000000  -0.000000   0.000000
    42  H   -0.000000   0.000000   0.000000   0.000000  -0.000000  -0.000000
    43  H    0.000000  -0.000000   0.010916  -0.000017  -0.000122  -0.000072
    44  H   -0.000009   0.000369   0.000000  -0.000058  -0.000000   0.000002
    45  H   -0.000027   0.003245  -0.000000  -0.000083   0.000000  -0.000001
    46  H   -0.000071   0.003360  -0.000000  -0.000034   0.000000  -0.000010
    47  H    0.000004  -0.000033   0.006515   0.003024  -0.000172  -0.010852
    48  H   -0.000008  -0.000005   0.001327   0.001159  -0.000096   0.002854
    49  H    0.000000  -0.000000   0.010145  -0.000043   0.000150  -0.000103
               7          8          9         10         11         12
     1  C    0.012588   0.463200   0.002185  -0.000000   0.000000  -0.000000
     2  C    0.000072  -0.017382   0.427988   0.000000  -0.000000  -0.000000
     3  C    0.472947  -0.048495  -0.000269  -0.000017  -0.000000  -0.000004
     4  C   -0.088503  -0.034392   0.497127   0.000000  -0.000000   0.000037
     5  C   -0.029469  -0.049479   0.000014  -0.000000   0.000000  -0.000000
     6  C    0.425748   0.386906   0.016880  -0.000000   0.000000  -0.000000
     7  C    5.129143  -0.031644   0.008474   0.000007   0.000000  -0.000010
     8  C   -0.031644   4.743240  -0.037417  -0.000000   0.000000  -0.000000
     9  C    0.008474  -0.037417   4.548402  -0.000000   0.000000   0.000000
    10  C    0.000007  -0.000000  -0.000000   4.905397   0.658722   0.000126
    11  C    0.000000   0.000000   0.000000   0.658722   4.802549   0.005147
    12  C   -0.000010  -0.000000   0.000000   0.000126   0.005147   4.982967
    13  C    0.006012   0.000002   0.000000  -0.000172  -0.007808  -0.052112
    14  C   -0.000282   0.000004  -0.000030  -0.000037   0.000296   0.337713
    15  C   -0.000054   0.000000  -0.000000  -0.015289  -0.042989  -0.010094
    16  C   -0.000011  -0.000000   0.000000  -0.048850   0.386140  -0.045396
    17  C   -0.000128   0.000000  -0.000000  -0.006344  -0.047252   0.352197
    18  C   -0.033448  -0.000162  -0.000051  -0.002428  -0.001184  -0.012283
    19  C    0.000004  -0.000071  -0.046396  -0.000000   0.000000   0.000000
    20  C    0.288127   0.008306   0.000871   0.000085  -0.000004  -0.000617
    21  N   -0.067552   0.381306  -0.000651  -0.000000   0.000000  -0.000000
    22  N   -0.002904  -0.000011   0.000007   0.000158   0.002113  -0.036523
    23  O   -0.044098  -0.000081  -0.000010   0.000001  -0.000000  -0.000026
    24  O   -0.000093   0.000371   0.289512   0.000000  -0.000000  -0.000000
    25  H   -0.000171  -0.026951   0.003566   0.000000  -0.000000   0.000000
    26  H    0.000002   0.003353  -0.046673  -0.000000   0.000000  -0.000000
    27  H   -0.056503   0.000403   0.000001  -0.000001   0.000000  -0.000000
    28  H   -0.011239   0.004038  -0.026010   0.000000   0.000000   0.000014
    29  H    0.002474   0.002711  -0.000001   0.000000   0.000000   0.000000
    30  H   -0.000000   0.000000  -0.000000   0.384932  -0.020714   0.000003
    31  H    0.000005  -0.000000   0.000000   0.380782  -0.048281  -0.000033
    32  H    0.000000  -0.000000   0.000000  -0.037250   0.387150  -0.000098
    33  H   -0.000000   0.000000   0.000000   0.000001   0.000067   0.390928
    34  H    0.000002  -0.000000  -0.000000  -0.000001  -0.000155   0.390224
    35  H   -0.000064  -0.000000  -0.000000   0.007078   0.007227   0.005346
    36  H    0.000839   0.000000   0.000000  -0.000039   0.000318  -0.004613
    37  H   -0.000701   0.000001  -0.000003   0.000001   0.000005  -0.028749
    38  H   -0.000012  -0.000000   0.000003   0.000000  -0.000004  -0.030514
    39  H    0.000002   0.000000  -0.000000   0.000511   0.003260  -0.000133
    40  H    0.000032  -0.000000   0.000000   0.004631  -0.007124  -0.000290
    41  H   -0.000000   0.000000  -0.000000   0.004411  -0.033933  -0.005069
    42  H    0.000003  -0.000000   0.000000  -0.000120  -0.003104  -0.032600
    43  H   -0.012702  -0.000021   0.000001  -0.000841   0.000700   0.000042
    44  H   -0.000000   0.000000   0.002927   0.000000  -0.000000   0.000000
    45  H    0.000000  -0.000004  -0.007554   0.000000  -0.000000  -0.000000
    46  H   -0.000000   0.000001  -0.007499  -0.000000   0.000000   0.000000
    47  H   -0.044054  -0.000164   0.000330  -0.000002  -0.000001  -0.000488
    48  H    0.012225  -0.000059  -0.000008  -0.000004  -0.000139   0.003455
    49  H   -0.013132  -0.000005   0.000001  -0.000005  -0.000000  -0.000000
              13         14         15         16         17         18
     1  C   -0.000000  -0.000000   0.000000   0.000000  -0.000000   0.000004
     2  C    0.000000   0.000000  -0.000000   0.000000  -0.000000   0.000001
     3  C    0.000172   0.000013  -0.000144   0.000006  -0.000007  -0.017045
     4  C    0.000002  -0.001073  -0.000003  -0.000000  -0.000001  -0.000758
     5  C   -0.000005   0.000000  -0.000002   0.000000   0.000000   0.000134
     6  C   -0.000181   0.000185   0.000028  -0.000001  -0.000002   0.004819
     7  C    0.006012  -0.000282  -0.000054  -0.000011  -0.000128  -0.033448
     8  C    0.000002   0.000004   0.000000  -0.000000   0.000000  -0.000162
     9  C    0.000000  -0.000030  -0.000000   0.000000  -0.000000  -0.000051
    10  C   -0.000172  -0.000037  -0.015289  -0.048850  -0.006344  -0.002428
    11  C   -0.007808   0.000296  -0.042989   0.386140  -0.047252  -0.001184
    12  C   -0.052112   0.337713  -0.010094  -0.045396   0.352197  -0.012283
    13  C    5.029284  -0.011758  -0.013591  -0.042198   0.332573   0.331678
    14  C   -0.011758   4.979607  -0.033756  -0.014119  -0.044176  -0.035399
    15  C   -0.013591  -0.033756   5.034376   0.335154  -0.049859  -0.032916
    16  C   -0.042198  -0.014119   0.335154   4.998053   0.347985  -0.010583
    17  C    0.332573  -0.044176  -0.049859   0.347985   5.019235  -0.039706
    18  C    0.331678  -0.035399  -0.032916  -0.010583  -0.039706   5.227665
    19  C    0.000000  -0.000000  -0.000000  -0.000000  -0.000000  -0.000000
    20  C   -0.039761  -0.003439   0.002897   0.000093   0.002427   0.281916
    21  N    0.000000   0.000000   0.000000   0.000000   0.000000  -0.000026
    22  N   -0.040256   0.214132   0.196215  -0.033094  -0.023792   0.163068
    23  O    0.000073   0.000002  -0.000046  -0.000014   0.000882  -0.049412
[...]
    37  H    0.000000  -0.000000  -0.000001   0.002487  -0.000000  -0.000000
    38  H   -0.000000  -0.000000   0.000000  -0.000007   0.000000  -0.000000
    39  H    0.000000  -0.000000  -0.000000  -0.000000  -0.000000  -0.000003
    40  H   -0.000000  -0.000000  -0.000008  -0.000000   0.000000  -0.000338
    41  H   -0.000000  -0.000000  -0.000000   0.000000  -0.000000  -0.000149
    42  H    0.000000  -0.000000  -0.000000   0.000000  -0.000000  -0.000004
    43  H   -0.000000   0.000000   0.005266  -0.000027   0.000021  -0.000062
    44  H   -0.000000  -0.000124  -0.000000  -0.000037  -0.000000   0.000000
    45  H    0.000004   0.001669  -0.000000   0.000040   0.000000   0.000000
    46  H    0.000003   0.001641  -0.000000   0.000038   0.000000  -0.000000
    47  H   -0.000000  -0.000000   0.000135   0.000370   0.000002   0.000000
    48  H    0.000000  -0.000000   0.000014   0.000086  -0.000001  -0.000000
    49  H   -0.000000   0.000000   0.004721  -0.000034   0.000008   0.000000
              31         32         33         34         35         36
     1  C    0.000000  -0.000000  -0.000000   0.000000  -0.000000  -0.000000
     2  C   -0.000000  -0.000000  -0.000000   0.000000   0.000000  -0.000000
     3  C   -0.000063  -0.000000   0.000000   0.000000  -0.000048  -0.000007
     4  C    0.000000   0.000000  -0.000000   0.000001  -0.000000   0.000004
     5  C   -0.000001  -0.000000   0.000000  -0.000000  -0.000001  -0.000000
     6  C    0.000000   0.000000   0.000000  -0.000001   0.000005  -0.000023
     7  C    0.000003   0.000000  -0.000000   0.000002  -0.000065   0.000730
     8  C   -0.000000  -0.000000   0.000000  -0.000000  -0.000000   0.000000
     9  C    0.000000   0.000000   0.000000  -0.000000  -0.000000   0.000000
    10  C    0.379877  -0.037849   0.000001  -0.000000   0.006163  -0.000023
    11  C   -0.046585   0.385551   0.000058  -0.000148   0.007425   0.000277
    12  C   -0.000021  -0.000103   0.390744   0.390205   0.005256  -0.004569
    13  C   -0.000501  -0.000262   0.005231  -0.004563   0.376697   0.393185
    14  C   -0.000017  -0.000003  -0.036156  -0.037015   0.000156  -0.000278
    15  C    0.001358   0.004455  -0.000042   0.000083   0.000603   0.000243
    16  C   -0.011388  -0.045592  -0.004492   0.004737  -0.005650   0.004219
    17  C    0.000410   0.000290  -0.032167  -0.028037  -0.028237  -0.029335
    18  C   -0.001075   0.000006   0.000157   0.000081  -0.027479  -0.044206
    19  C    0.000000  -0.000000   0.000000  -0.000000  -0.000000   0.000000
    20  C    0.000030   0.000000   0.000007   0.000128   0.000493  -0.006173
    21  N    0.000000   0.000000   0.000000  -0.000000   0.000000   0.000000
    22  N   -0.000554  -0.000075   0.002245   0.002310   0.003189   0.001500
    23  O   -0.000001   0.000000   0.000000  -0.000024   0.000406   0.008600
    24  O   -0.000000  -0.000000   0.000000   0.000000   0.000000  -0.000000
    25  H   -0.000000   0.000000  -0.000000   0.000000  -0.000000   0.000000
    26  H    0.000000  -0.000000   0.000000  -0.000000   0.000000  -0.000000
    27  H    0.000124   0.000000  -0.000000   0.000000   0.000065  -0.000012
    28  H   -0.000000   0.000000   0.000000  -0.000009  -0.000000   0.000001
    29  H   -0.000000  -0.000000   0.000000   0.000000   0.000000  -0.000000
    30  H   -0.039521  -0.008853  -0.000000  -0.000000   0.000059  -0.000001
    31  H    0.617918   0.005733  -0.000000   0.000001  -0.000050   0.000022
    32  H    0.005733   0.572987  -0.000012   0.000003   0.000048  -0.000000
    33  H   -0.000000  -0.000012   0.564128  -0.028752  -0.000170   0.000106
    34  H    0.000001   0.000003  -0.028752   0.557177  -0.000014   0.004013
    35  H   -0.000050   0.000048  -0.000170  -0.000014   0.558563  -0.027549
    36  H    0.000022  -0.000000   0.000106   0.004013  -0.027549   0.536983
    37  H    0.000000  -0.000000   0.003265  -0.009595   0.000006  -0.000121
    38  H   -0.000000  -0.000000  -0.009711   0.003521   0.000008   0.000001
    39  H    0.000014  -0.000161  -0.000078   0.000015  -0.000006   0.000015
    40  H    0.004344   0.000382   0.000001   0.000016  -0.000176   0.000007
    41  H   -0.000003  -0.006201   0.004936   0.000033   0.000049  -0.000132
    42  H    0.000042   0.001768  -0.003146  -0.003220  -0.003391  -0.002414
    43  H    0.004135   0.000007   0.000014   0.000009  -0.009452   0.003750
    44  H   -0.000000  -0.000000   0.000000  -0.000000  -0.000000   0.000000
    45  H   -0.000000  -0.000000   0.000000   0.000000  -0.000000   0.000000
    46  H    0.000000   0.000000  -0.000000  -0.000000   0.000000  -0.000000
    47  H   -0.000001  -0.000000   0.000009   0.000333  -0.000147   0.001244
    48  H    0.000049   0.000003  -0.000128  -0.000112  -0.000118  -0.000113
    49  H   -0.000002  -0.000000  -0.000000   0.000002   0.000448  -0.000372
              37         38         39         40         41         42
     1  C   -0.000001   0.000000   0.000000   0.000000  -0.000000  -0.000000
     2  C    0.000000   0.000000  -0.000000   0.000000  -0.000000   0.000000
     3  C   -0.000029   0.000002   0.000002   0.000077  -0.000000   0.000000
     4  C    0.001440   0.000001  -0.000000  -0.000000  -0.000000   0.000000
     5  C    0.000000  -0.000000  -0.000000  -0.000000  -0.000000  -0.000000
     6  C    0.000338  -0.000014  -0.000001  -0.000001   0.000000  -0.000000
     7  C   -0.000594  -0.000011   0.000003   0.000024  -0.000000   0.000002
     8  C    0.000001  -0.000000   0.000000  -0.000000   0.000000  -0.000000
     9  C   -0.000003   0.000002  -0.000000   0.000000  -0.000000   0.000000
    10  C    0.000000   0.000000   0.000305   0.005756   0.004056  -0.000149
    11  C    0.000004  -0.000004   0.003068  -0.007351  -0.031885  -0.002984
    12  C   -0.028128  -0.029914  -0.000101  -0.000258  -0.004936  -0.032985
    13  C    0.000280  -0.000136  -0.000108   0.000181   0.005272  -0.032547
    14  C    0.391548   0.392742  -0.003078   0.003283  -0.000226   0.004896
    15  C    0.003413  -0.003916   0.386464   0.386153  -0.045249   0.005310
    16  C    0.000021   0.000165  -0.028573  -0.031658   0.391200  -0.033413
    17  C    0.001773   0.001993   0.002366   0.002867  -0.036747   0.396896
    18  C   -0.004363   0.003594   0.003391  -0.004114   0.000101   0.004297
    19  C   -0.000000  -0.000000   0.000000   0.000000   0.000000   0.000000
    20  C    0.001691   0.000137  -0.000136   0.000039   0.000007  -0.000058
    21  N   -0.000000   0.000000  -0.000000  -0.000000  -0.000000  -0.000000
    22  N   -0.032672  -0.032247  -0.031826  -0.032194   0.002481  -0.000153
    23  O   -0.000030  -0.000000   0.000000   0.000000   0.000000   0.000001
    24  O   -0.000010   0.000000   0.000000   0.000000   0.000000   0.000000
    25  H    0.000000  -0.000000   0.000000  -0.000000  -0.000000   0.000000
    26  H   -0.000000  -0.000000  -0.000000  -0.000000  -0.000000  -0.000000
    27  H   -0.000001   0.000000  -0.000000  -0.000008  -0.000000  -0.000000
    28  H    0.002487  -0.000007  -0.000000  -0.000000   0.000000   0.000000
    29  H   -0.000000   0.000000  -0.000000   0.000000  -0.000000  -0.000000
    30  H   -0.000000  -0.000000  -0.000003  -0.000338  -0.000149  -0.000004
    31  H    0.000000  -0.000000   0.000014   0.004344  -0.000003   0.000042
    32  H   -0.000000  -0.000000  -0.000161   0.000382  -0.006201   0.001768
    33  H    0.003265  -0.009711  -0.000078   0.000001   0.004936  -0.003146
    34  H   -0.009595   0.003521   0.000015   0.000016   0.000033  -0.003220
    35  H    0.000006   0.000008  -0.000006  -0.000176   0.000049  -0.003391
    36  H   -0.000121   0.000001   0.000015   0.000007  -0.000132  -0.002414
    37  H    0.527676  -0.027328   0.000064  -0.000198   0.000002  -0.000105
    38  H   -0.027328   0.532026   0.004448   0.000097  -0.000093  -0.000113
    39  H    0.000064   0.004448   0.537173  -0.026226  -0.009130  -0.000121
    40  H   -0.000198   0.000097  -0.026226   0.527360   0.003106  -0.000090
    41  H    0.000002  -0.000093  -0.009130   0.003106   0.588449  -0.003732
    42  H   -0.000105  -0.000113  -0.000121  -0.000090  -0.003732   0.561886
    43  H   -0.000036  -0.000153   0.000185   0.004002   0.000041  -0.000122
    44  H   -0.000000  -0.000000   0.000000  -0.000000   0.000000   0.000000
    45  H   -0.000000   0.000000   0.000000   0.000000  -0.000000   0.000000
    46  H    0.000000   0.000000  -0.000000  -0.000000  -0.000000  -0.000000
    47  H    0.001840  -0.000016   0.000011   0.000006   0.000000  -0.000010
    48  H   -0.002058  -0.002455  -0.002333  -0.002449  -0.000136   0.000021
    49  H    0.000003   0.000000   0.000000   0.000000  -0.000000  -0.000000
              43         44         45         46         47         48
     1  C    0.000000  -0.000002  -0.000122  -0.000150   0.000002  -0.000005
     2  C   -0.000000   0.000247   0.002955   0.002980  -0.000022  -0.000004
     3  C    0.009983   0.000000  -0.000000  -0.000000   0.006343   0.001256
     4  C   -0.000010  -0.000076  -0.000049  -0.000004   0.003508   0.000922
     5  C   -0.000114  -0.000000   0.000000   0.000000  -0.000155  -0.000077
     6  C   -0.000076   0.000002  -0.000000  -0.000007  -0.009652   0.002511
     7  C   -0.011149  -0.000000  -0.000000  -0.000000  -0.042305   0.011221
     8  C   -0.000018   0.000000  -0.000002   0.000001  -0.000139  -0.000025
     9  C    0.000001   0.002697  -0.005122  -0.005087   0.000223  -0.000006
    10  C    0.000346   0.000000   0.000000  -0.000000  -0.000001  -0.000004
    11  C    0.000458  -0.000000  -0.000000   0.000000  -0.000001  -0.000128
    12  C    0.000049   0.000000  -0.000000   0.000000  -0.000366   0.003403
    13  C   -0.037164  -0.000000   0.000000  -0.000000  -0.003230   0.004256
    14  C    0.003806   0.000000   0.000000  -0.000000   0.002421  -0.024705
    15  C   -0.002519  -0.000000   0.000000   0.000000  -0.000120  -0.022702
    16  C   -0.000432  -0.000000  -0.000000   0.000000   0.000012   0.003027
    17  C    0.000411  -0.000000   0.000000  -0.000000   0.000102   0.000641
    18  C    0.376211  -0.000000   0.000000  -0.000000  -0.060390  -0.028332
    19  C    0.000000   0.398412   0.378273   0.375338   0.000000   0.000000
    20  C   -0.033920  -0.000000   0.000000   0.000000   0.384210  -0.003704
    21  N    0.000006  -0.000000   0.000000   0.000000   0.000001  -0.000031
    22  N   -0.038285  -0.000000   0.000000  -0.000000  -0.003991   0.332134
    23  O   -0.000072   0.000000   0.000000  -0.000000  -0.033757   0.000081
    24  O   -0.000000  -0.031296  -0.032511  -0.033521  -0.000025  -0.000000
    25  H   -0.000000  -0.000000   0.000004   0.000003  -0.000000   0.000000
    26  H    0.000000  -0.000124   0.001669   0.001641  -0.000000  -0.000000
    27  H    0.005266  -0.000000  -0.000000  -0.000000   0.000135   0.000014
    28  H   -0.000027  -0.000037   0.000040   0.000038   0.000370   0.000086
    29  H    0.000021  -0.000000   0.000000   0.000000   0.000002  -0.000001
    30  H   -0.000062   0.000000   0.000000  -0.000000   0.000000  -0.000000
    31  H    0.004135  -0.000000  -0.000000   0.000000  -0.000001   0.000049
    32  H    0.000007  -0.000000  -0.000000   0.000000  -0.000000   0.000003
    33  H    0.000014   0.000000   0.000000  -0.000000   0.000009  -0.000128
    34  H    0.000009  -0.000000   0.000000  -0.000000   0.000333  -0.000112
    35  H   -0.009452  -0.000000  -0.000000   0.000000  -0.000147  -0.000118
    36  H    0.003750   0.000000   0.000000  -0.000000   0.001244  -0.000113
    37  H   -0.000036  -0.000000  -0.000000   0.000000   0.001840  -0.002058
    38  H   -0.000153  -0.000000   0.000000   0.000000  -0.000016  -0.002455
    39  H    0.000185   0.000000   0.000000  -0.000000   0.000011  -0.002333
    40  H    0.004002  -0.000000   0.000000  -0.000000   0.000006  -0.002449
    41  H    0.000041   0.000000  -0.000000  -0.000000   0.000000  -0.000136
    42  H   -0.000122   0.000000   0.000000  -0.000000  -0.000010   0.000021
    43  H    0.583073   0.000000  -0.000000   0.000000   0.005875  -0.001805
    44  H    0.000000   0.541493  -0.028219  -0.030224   0.000000   0.000000
    45  H   -0.000000  -0.028219   0.598494  -0.049310  -0.000000  -0.000000
    46  H    0.000000  -0.030224  -0.049310   0.613196  -0.000000   0.000000
    47  H    0.005875   0.000000  -0.000000  -0.000000   0.631294  -0.000225
    48  H   -0.001805   0.000000  -0.000000   0.000000  -0.000225   0.396188
    49  H    0.002138   0.000000  -0.000000   0.000000   0.006905  -0.000015
              49
     1  C    0.000000
     2  C   -0.000000
     3  C    0.009322
     4  C   -0.000032
     5  C    0.000102
     6  C   -0.000090
     7  C   -0.011623
     8  C   -0.000004
     9  C    0.000001
    10  C   -0.000003
    11  C   -0.000000
    12  C   -0.000000
    13  C   -0.001384
    14  C    0.000011
    15  C   -0.000003
    16  C    0.000003
    17  C   -0.000025
    18  C   -0.005015
    19  C    0.000000
    20  C   -0.027315
    21  N    0.000006
    22  N    0.000055
    23  O    0.288917
    24  O    0.000000
    25  H   -0.000000
    26  H    0.000000
    27  H    0.004721
    28  H   -0.000034
    29  H    0.000008
    30  H    0.000000
    31  H   -0.000002
    32  H   -0.000000
    33  H   -0.000000
    34  H    0.000002
    35  H    0.000448
    36  H   -0.000372
    37  H    0.000003
    38  H    0.000000
    39  H    0.000000
    40  H    0.000000
    41  H   -0.000000
    42  H   -0.000000
    43  H    0.002138
    44  H    0.000000
    45  H   -0.000000
    46  H    0.000000
    47  H    0.006905
    48  H   -0.000015
    49  H    0.413336
 Mulliken charges:
               1
     1  C   -0.086213
     2  C   -0.132608
     3  C   -0.175375
     4  C   -0.204847
     5  C    0.087769
     6  C    0.102534
     7  C    0.079492
     8  C    0.233420
     9  C    0.372977
    10  C   -0.238281
    11  C   -0.047225
    12  C   -0.208323
    13  C   -0.195817
    14  C   -0.083396
    15  C   -0.079716
    16  C   -0.115594
    17  C   -0.096919
    18  C    0.018318
    19  C   -0.092761
    20  C    0.112085
    21  N   -0.492053
    22  N   -0.473937
    23  O   -0.510250
    24  O   -0.521760
    25  H    0.130442
    26  H    0.117271
    27  H    0.085770
    28  H    0.080321
    29  H    0.122067
    30  H    0.144592
    31  H    0.085724
    32  H    0.127878
    33  H    0.143952
    34  H    0.148820
    35  H    0.142917
    36  H    0.160426
    37  H    0.169416
    38  H    0.167381
    39  H    0.164360
    40  H    0.167359
    41  H    0.138884
    42  H    0.143639
    43  H    0.135627
    44  H    0.147128
    45  H    0.133900
    46  H    0.125105
    47  H    0.109704
    48  H    0.335859
    49  H    0.319940
 Sum of Mulliken charges =   1.00000
 Mulliken charges with hydrogens summed into heavy atoms:
               1
     1  C    0.044229
     2  C   -0.015337
     3  C   -0.089605
     4  C   -0.124526
     5  C    0.209836
     6  C    0.102534
     7  C    0.079492
     8  C    0.233420
     9  C    0.372977
    10  C   -0.007964
    11  C    0.080653
    12  C    0.084448
    13  C    0.107526
    14  C    0.253401
    15  C    0.252003
    16  C    0.023290
    17  C    0.046719
    18  C    0.153944
    19  C    0.313372
    20  C    0.221788
    21  N   -0.492053
    22  N   -0.138078
    23  O   -0.190310
    24  O   -0.521760
 Electronic spatial extent (au):  <R**2>=           8993.9938
 Charge=              1.0000 electrons
 Dipole moment (field-independent basis, Debye):
    X=             -6.6049    Y=             -4.0721    Z=             -3.2149  Tot=              8.3989
 Quadrupole moment (field-independent basis, Debye-Ang):
   XX=            -75.4837   YY=           -118.6311   ZZ=           -136.8960
   XY=             -9.1136   XZ=             -0.5076   YZ=              6.1889
 Traceless Quadrupole moment (field-independent basis, Debye-Ang):
   XX=             34.8533   YY=             -8.2942   ZZ=            -26.5591
   XY=             -9.1136   XZ=             -0.5076   YZ=              6.1889
 Octapole moment (field-independent basis, Debye-Ang**2):
  XXX=             39.0919  YYY=            -33.1279  ZZZ=            -10.6743  XYY=            -25.7411
  XXY=            -92.6349  XXZ=            -36.4151  XZZ=            -18.9640  YZZ=            -12.4008
  YYZ=             10.1015  XYZ=              1.0730
 Hexadecapole moment (field-independent basis, Debye-Ang**3):
 XXXX=          -6533.9321 YYYY=          -2382.1986 ZZZZ=           -904.5082 XXXY=           -420.4173
 XXXZ=            -88.1040 YYYX=           -196.9612 YYYZ=             51.2880 ZZZX=             -3.6016
 ZZZY=             37.0362 XXYY=          -1575.5788 XXZZ=          -1530.0730 YYZZ=           -555.9209
 XXYZ=             34.3245 YYXZ=             -1.3888 ZZXY=             -4.0822
 N-N= 2.112734549493D+03 E-N=-6.610092377063D+03  KE= 1.027121294975D+03
 1\1\GINC-CPU195\FOpt\RB3LYP\6-31G(d,p)\C20H25N2O2(1+)\FEBRERMA\05-Feb-
 2024\0\\# B3LYP/6-31G** opt=Modredundant\\G3\\1,1\C,11.9820225857,40.4
 675285774,33.1088326881\C,12.0374970618,41.7161508787,32.5352734279\C,
 11.2400354051,37.0623710116,30.7501368728\C,11.600324145,40.7577076507
 ,30.3546989994\C,11.4469318232,37.0138370982,32.1617810717\C,11.538416
 1022,39.458967718,30.9235586177\C,11.2902999064,38.3008713991,30.14863
 18334\C,11.7321909134,39.300446944,32.3311203024\C,11.8429624317,41.86
 74926314,31.1296818953\C,7.2726496853,35.0774089601,27.6285591723\C,6.
 8173882152,36.046049016,26.8327775832\C,8.3951499877,39.5294208584,26.
 188086566\C,9.6050610711,37.4186599668,26.7021310258\C,8.5532639653,39
 .971057987,27.656444571\C,7.2179246705,38.0087028102,28.397881912\C,7.
 0651946922,37.5461477825,26.9253982291\C,8.2987148471,37.9953194811,26
 .0959640888\C,9.6962482431,37.7646315879,28.203426855\C,12.1473361728,
 44.2539220623,31.3573286907\C,11.0687158128,38.3636203723,28.627602073
 9\N,11.6838009023,38.0839978178,32.9273457832\N,8.5542484302,38.733844
 8671,28.5343097777\O,12.1060772096,37.6301945594,27.9938330681\O,11.89
 6801262,43.0960165443,30.5632863311\H,12.1327979218,40.3807375908,34.1
 795987212\H,12.2298340812,42.5798460594,33.1568659222\H,11.0519859976,
 36.1549694584,30.1834558364\H,11.4568389093,40.9032058151,29.291338996
 6\H,11.4188617091,36.0662823759,32.6949207936\H,7.0133166917,34.040849
 4595,27.4416976093\H,7.9133886576,35.2482207564,28.49065621\H,6.183203
 0623,35.7382515764,26.0029584788\H,7.5031585492,39.9934301347,25.75635
 12325\H,9.2431328723,39.8931550142,25.6014007907\H,9.6398110656,36.334
 5308574,26.5770452265\H,10.4671511494,37.8098043736,26.156567891\H,9.4
 809191368,40.5130356549,27.8316495794\H,7.7235772261,40.6003439421,27.
 9834451576\H,6.4401127101,38.72135096,28.6803018363\H,7.2191014388,37.
 1973507789,29.1242485376\H,6.1734628994,38.0268730101,26.5100302671\H,
 8.2023406072,37.6916583933,25.0518807461\H,9.5145566484,36.872872463,2
 8.8053730125\H,12.1394545547,45.0979133826,30.6701050474\H,13.10926768
 73,44.1811848154,31.8770263056\H,11.371688371,44.3838642432,32.1218990
 206\H,11.1304777085,39.3867880493,28.2658559588\H,8.6508375553,39.0316
 612328,29.5106961256\H,12.0796672475,36.7121650205,28.2955362599\\Vers
 ion=ES64L-G16RevA.03\State=1-A\HF=-1036.8953491\RMSD=4.009e-09\RMSF=5.
 575e-03\Dipole=-2.7961388,0.0147699,-1.7608103\Quadrupole=-6.1487113,1
 1.038095,-4.8893836,9.8975112,15.4434971,13.7361927\PG=C01 [X(C20H25N2
 O2)]\\@


 IT IS IMPOSSIBLE TO MEDITATE ON TIME AND THE MYSTERY 
 OF NATURE WITHOUT AN OVERWHELMING EMOTION AT THE
 LIMITATIONS OF HUMAN INTELLIGENCE.

                                         -- ALFRED NORTH WHITEHEAD
 Job cpu time:       0 days  1 hours 37 minutes 29.2 seconds.
 Elapsed time:       0 days  0 hours 12 minutes 15.5 seconds.
 File lengths (MBytes):  RWF=    151 Int=      0 D2E=      0 Chk=     20 Scr=      1
 Normal termination of Gaussian 16 at Mon Feb  5 15:34:38 2024.
