 Entering Gaussian System, Link 0=g16
 Initial command:
 /opt/ebsofts/Gaussian/g16/l1.exe "/scratch/Gau-2563748.inp" -scrdir="/scratch/"
 Entering Link 1 = /opt/ebsofts/Gaussian/g16/l1.exe PID=   2563749.
  
 Copyright (c) 1988,1990,1992,1993,1995,1998,2003,2009,2016,
            Gaussian, Inc.  All Rights Reserved.
  
 This is part of the Gaussian(R) 16 program.  It is based on
 the Gaussian(R) 09 system (copyright 2009, Gaussian, Inc.),
 the Gaussian(R) 03 system (copyright 2003, Gaussian, Inc.),
 the Gaussian(R) 98 system (copyright 1998, Gaussian, Inc.),
 the Gaussian(R) 94 system (copyright 1995, Gaussian, Inc.),
 the Gaussian 92(TM) system (copyright 1992, Gaussian, Inc.),
 the Gaussian 90(TM) system (copyright 1990, Gaussian, Inc.),
 the Gaussian 88(TM) system (copyright 1988, Gaussian, Inc.),
 the Gaussian 86(TM) system (copyright 1986, Carnegie Mellon
 University), and the Gaussian 82(TM) system (copyright 1983,
 Carnegie Mellon University). Gaussian is a federally registered
 trademark of Gaussian, Inc.
  
 This software contains proprietary and confidential information,
 including trade secrets, belonging to Gaussian, Inc.
  
 This software is provided under written license and may be
 used, copied, transmitted, or stored only in accord with that
 written license.
  
 The following legend is applicable only to US Government
 contracts under FAR:
  
                    RESTRICTED RIGHTS LEGEND
  
 Use, reproduction and disclosure by the US Government is
 subject to restrictions as set forth in subparagraphs (a)
 and (c) of the Commercial Computer Software - Restricted
 Rights clause in FAR 52.227-19.
  
 Gaussian, Inc.
 340 Quinnipiac St., Bldg. 40, Wallingford CT 06492
  
  
 ---------------------------------------------------------------
 Warning -- This program may not be used in any manner that
 competes with the business of Gaussian, Inc. or will provide
 assistance to any competitor of Gaussian, Inc.  The licensee
 of this program is prohibited from giving any competitor of
 Gaussian, Inc. access to this program.  By using this program,
 the user acknowledges that Gaussian, Inc. is engaged in the
 business of creating and licensing software in the field of
 computational chemistry and represents and warrants to the
 licensee that it is not a competitor of Gaussian, Inc. and that
 it will not use this program in any manner prohibited above.
 ---------------------------------------------------------------
  

 Cite this work as:
 Gaussian 16, Revision A.03,
 M. J. Frisch, G. W. Trucks, H. B. Schlegel, G. E. Scuseria, 
 M. A. Robb, J. R. Cheeseman, G. Scalmani, V. Barone, 
 G. A. Petersson, H. Nakatsuji, X. Li, M. Caricato, A. V. Marenich, 
 J. Bloino, B. G. Janesko, R. Gomperts, B. Mennucci, H. P. Hratchian, 
 J. V. Ortiz, A. F. Izmaylov, J. L. Sonnenberg, D. Williams-Young, 
 F. Ding, F. Lipparini, F. Egidi, J. Goings, B. Peng, A. Petrone, 
 T. Henderson, D. Ranasinghe, V. G. Zakrzewski, J. Gao, N. Rega, 
 G. Zheng, W. Liang, M. Hada, M. Ehara, K. Toyota, R. Fukuda, 
 J. Hasegawa, M. Ishida, T. Nakajima, Y. Honda, O. Kitao, H. Nakai, 
 T. Vreven, K. Throssell, J. A. Montgomery, Jr., J. E. Peralta, 
 F. Ogliaro, M. J. Bearpark, J. J. Heyd, E. N. Brothers, K. N. Kudin, 
 V. N. Staroverov, T. A. Keith, R. Kobayashi, J. Normand, 
 K. Raghavachari, A. P. Rendell, J. C. Burant, S. S. Iyengar, 
 J. Tomasi, M. Cossi, J. M. Millam, M. Klene, C. Adamo, R. Cammi, 
 J. W. Ochterski, R. L. Martin, K. Morokuma, O. Farkas, 
 J. B. Foresman, and D. J. Fox, Gaussian, Inc., Wallingford CT, 2016.
 
 ******************************************
 Gaussian 16:  ES64L-G16RevA.03 25-Dec-2016
                 5-Feb-2024 
 ******************************************
 %Chk=G3.chk
 %nprocshared=8
 Will use up to    8 processors via shared memory.
 %mem=1GB
 ----------------------------------------------------------------------
 # HF/6-31G** SCRF=(Solvent=Water) POP=MK iop(6/50=1) geom=allcheck gue
 ss=read
 ----------------------------------------------------------------------
 1/29=7,38=1,172=1/1;
 2/12=2,40=1/2;
 3/5=1,6=6,7=101,11=9,14=-4,25=1,30=1,70=2201,72=1,116=-2/1,2,3;
 4/5=1/1;
 5/5=2,38=6,53=1/2;
 6/7=2,8=2,9=2,10=2,15=8,20=1,28=1,50=1/1,2;
 99/5=1,9=1/99;
 Structure from the checkpoint file:  "G3.chk"
 --
 G3
 --
 Charge =  1 Multiplicity = 1
 Redundant internal coordinates found in file.  (old form).
 C,0,11.9820225857,40.4675285774,33.1088326881
 C,0,12.0374970618,41.7161508787,32.5352734279
 C,0,11.2400354051,37.0623710116,30.7501368728
 C,0,11.600324145,40.7577076507,30.3546989994
 C,0,11.4469318232,37.0138370982,32.1617810717
 C,0,11.5384161022,39.458967718,30.9235586177
 C,0,11.2902999064,38.3008713991,30.1486318334
 C,0,11.7321909134,39.300446944,32.3311203024
 C,0,11.8429624317,41.8674926314,31.1296818953
 C,0,7.2726496853,35.0774089601,27.6285591723
 C,0,6.8173882152,36.046049016,26.8327775832
 C,0,8.3951499877,39.5294208584,26.188086566
 C,0,9.6050610711,37.4186599668,26.7021310258
 C,0,8.5532639653,39.971057987,27.656444571
 C,0,7.2179246705,38.0087028102,28.397881912
 C,0,7.0651946922,37.5461477825,26.9253982291
 C,0,8.2987148471,37.9953194811,26.0959640888
 C,0,9.6962482431,37.7646315879,28.203426855
 C,0,12.1473361728,44.2539220623,31.3573286907
 C,0,11.0687158128,38.3636203723,28.6276020739
 N,0,11.6838009023,38.0839978178,32.9273457832
 N,0,8.5542484302,38.7338448671,28.5343097777
 O,0,12.1060772096,37.6301945594,27.9938330681
 O,0,11.896801262,43.0960165443,30.5632863311
 H,0,12.1327979218,40.3807375908,34.1795987212
 H,0,12.2298340812,42.5798460594,33.1568659222
 H,0,11.0519859976,36.1549694584,30.1834558364
 H,0,11.4568389093,40.9032058151,29.2913389966
 H,0,11.4188617091,36.0662823759,32.6949207936
 H,0,7.0133166917,34.0408494595,27.4416976093
 H,0,7.9133886576,35.2482207564,28.49065621
 H,0,6.1832030623,35.7382515764,26.0029584788
 H,0,7.5031585492,39.9934301347,25.7563512325
 H,0,9.2431328723,39.8931550142,25.6014007907
 H,0,9.6398110656,36.3345308574,26.5770452265
 H,0,10.4671511494,37.8098043736,26.156567891
 H,0,9.4809191368,40.5130356549,27.8316495794
 H,0,7.7235772261,40.6003439421,27.9834451576
 H,0,6.4401127101,38.72135096,28.6803018363
 H,0,7.2191014388,37.1973507789,29.1242485376
 H,0,6.1734628994,38.0268730101,26.5100302671
 H,0,8.2023406072,37.6916583933,25.0518807461
 H,0,9.5145566484,36.872872463,28.8053730125
 H,0,12.1394545547,45.0979133826,30.6701050474
 H,0,13.1092676873,44.1811848154,31.8770263056
 H,0,11.371688371,44.3838642432,32.1218990206
 H,0,11.1304777085,39.3867880493,28.2658559588
 H,0,8.6508375553,39.0316612328,29.5106961256
 H,0,12.0796672475,36.7121650205,28.2955362599
 Recover connectivity data from disk.
                           ----------------------------
                           !    Current Parameters    !
                           ! (Angstroms and Degrees)  !
 --------------------------                            --------------------------
 ! Name  Definition              Value                                          !
 --------------------------------------------------------------------------------
 ! R1    R(1,2)                  1.3752                                         !
 ! R2    R(1,8)                  1.4245                                         !
 ! R3    R(1,25)                 1.0848                                         !
 ! R4    R(2,9)                  1.427                                          !
 ! R5    R(2,26)                 1.0814                                         !
 ! R6    R(3,5)                  1.4276                                         !
 ! R7    R(3,7)                  1.3778                                         !
 ! R8    R(3,27)                 1.0862                                         !
 ! R9    R(4,6)                  1.4192                                         !
 ! R10   R(4,9)                  1.3752                                         !
 ! R11   R(4,28)                 1.0828                                         !
 ! R12   R(5,21)                 1.337                                          !
 ! R13   R(5,29)                 1.0876                                         !
 ! R14   R(6,7)                  1.4154                                         !
 ! R15   R(6,8)                  1.4297                                         !
 ! R16   R(7,20)                 1.5384                                         !
 ! R17   R(8,21)                 1.3556                                         !
 ! R18   R(9,24)                 1.3539                                         !
 ! R19   R(10,11)                1.3337                                         !
 ! R20   R(10,30)                1.0847                                         !
 ! R21   R(10,31)                1.0876                                         !
 ! R22   R(11,16)                1.5232                                         !
 ! R23   R(11,32)                1.0888                                         !
 ! R24   R(12,14)                1.5415                                         !
 ! R25   R(12,17)                1.5399                                         !
 ! R26   R(12,33)                1.0942                                         !
 ! R27   R(12,34)                1.0934                                         !
 ! R28   R(13,17)                1.5513                                         !
 ! R29   R(13,18)                1.5433                                         !
 ! R30   R(13,35)                1.0919                                         !
 ! R31   R(13,36)                1.0926                                         !
 ! R32   R(14,22)                1.517                                          !
 ! R33   R(14,37)                1.0886                                         !
 ! R34   R(14,38)                1.0915                                         !
 ! R35   R(15,16)                1.551                                          !
 ! R36   R(15,22)                1.5265                                         !
 ! R37   R(15,39)                1.0921                                         !
 ! R38   R(15,40)                1.089                                          !
 ! R39   R(16,17)                1.5528                                         !
 ! R40   R(16,41)                1.0949                                         !
 ! R41   R(17,42)                1.0916                                         !
 ! R42   R(18,20)                1.5564                                         !
 ! R43   R(18,22)                1.534                                          !
 ! R44   R(18,43)                1.0911                                         !
 ! R45   R(19,24)                1.4262                                         !
 ! R46   R(19,44)                1.0884                                         !
 ! R47   R(19,45)                1.0958                                         !
 ! R48   R(19,46)                1.0969                                         !
 ! R49   R(20,23)                1.4198                                         !
 ! R50   R(20,47)                1.087                                          !
 ! R51   R(22,48)                1.0254                                         !
 ! R52   R(23,49)                0.9667                                         !
 ! A1    A(2,1,8)              121.5503                                         !
 ! A2    A(2,1,25)             118.6018                                         !
 ! A3    A(8,1,25)             119.8479                                         !
 ! A4    A(1,2,9)              120.1064                                         !
 ! A5    A(1,2,26)             119.514                                          !
 ! A6    A(9,2,26)             120.3796                                         !
 ! A7    A(5,3,7)              117.1932                                         !
 ! A8    A(5,3,27)             120.8357                                         !
 ! A9    A(7,3,27)             121.9711                                         !
 ! A10   A(6,4,9)              121.3537                                         !
 ! A11   A(6,4,28)             120.7178                                         !
 ! A12   A(9,4,28)             117.9285                                         !
 ! A13   A(3,5,21)             124.3817                                         !
 ! A14   A(3,5,29)             120.7047                                         !
 ! A15   A(21,5,29)            114.9136                                         !
 ! A16   A(4,6,7)              122.4772                                         !
 ! A17   A(4,6,8)              119.3531                                         !
 ! A18   A(7,6,8)              118.1697                                         !
 ! A19   A(3,7,6)              120.1914                                         !
 ! A20   A(3,7,20)             117.5857                                         !
 ! A21   A(6,7,20)             122.2229                                         !
 ! A22   A(1,8,6)              118.0623                                         !
 ! A23   A(1,8,21)             120.0876                                         !
 ! A24   A(6,8,21)             121.8501                                         !
 ! A25   A(2,9,4)              119.5742                                         !
 ! A26   A(2,9,24)             120.1906                                         !
 ! A27   A(4,9,24)             120.2352                                         !
 ! A28   A(11,10,30)           120.6392                                         !
 ! A29   A(11,10,31)           124.054                                          !
 ! A30   A(30,10,31)           115.3068                                         !
 ! A31   A(10,11,16)           128.5666                                         !
 ! A32   A(10,11,32)           116.6311                                         !
 ! A33   A(16,11,32)           114.8023                                         !
 ! A34   A(14,12,17)           110.4163                                         !
 ! A35   A(14,12,33)           109.753                                          !
 ! A36   A(14,12,34)           109.6488                                         !
 ! A37   A(17,12,33)           110.3529                                         !
 ! A38   A(17,12,34)           110.3573                                         !
 ! A39   A(33,12,34)           106.226                                          !
 ! A40   A(17,13,18)           110.2751                                         !
 ! A41   A(17,13,35)           110.5563                                         !
 ! A42   A(17,13,36)           109.6482                                         !
 ! A43   A(18,13,35)           109.3987                                         !
 ! A44   A(18,13,36)           111.0292                                         !
 ! A45   A(35,13,36)           105.8508                                         !
 ! A46   A(12,14,22)           108.5202                                         !
 ! A47   A(12,14,37)           112.5428                                         !
 ! A48   A(12,14,38)           111.876                                          !
 ! A49   A(22,14,37)           108.2014                                         !
 ! A50   A(22,14,38)           107.2974                                         !
 ! A51   A(37,14,38)           108.2109                                         !
 ! A52   A(16,15,22)           108.2238                                         !
 ! A53   A(16,15,39)           111.716                                          !
 ! A54   A(16,15,40)           114.2779                                         !
 ! A55   A(22,15,39)           106.8818                                         !
 ! A56   A(22,15,40)           107.0596                                         !
 ! A57   A(39,15,40)           108.3287                                         !
 ! A58   A(11,16,15)           111.5586                                         !
 ! A59   A(11,16,17)           112.4338                                         !
 ! A60   A(11,16,41)           106.0706                                         !
 ! A61   A(15,16,17)           110.0367                                         !
 ! A62   A(15,16,41)           108.0247                                         !
 ! A63   A(17,16,41)           108.5014                                         !
 ! A64   A(12,17,13)           107.1107                                         !
 ! A65   A(12,17,16)           107.8162                                         !
 ! A66   A(12,17,42)           109.8696                                         !
 ! A67   A(13,17,16)           110.6523                                         !
 ! A68   A(13,17,42)           110.1621                                         !
 ! A69   A(16,17,42)           111.118                                          !
 ! A70   A(13,18,20)           113.7963                                         !
 ! A71   A(13,18,22)           107.9075                                         !
 ! A72   A(13,18,43)           110.0958                                         !
 ! A73   A(20,18,22)           110.7655                                         !
 ! A74   A(20,18,43)           108.1207                                         !
 ! A75   A(22,18,43)           105.8679                                         !
 ! A76   A(24,19,44)           106.0665                                         !
 ! A77   A(24,19,45)           111.3693                                         !
 ! A78   A(24,19,46)           111.1034                                         !
 ! A79   A(44,19,45)           110.9338                                         !
 ! A80   A(44,19,46)           110.068                                          !
 ! A81   A(45,19,46)           107.3407                                         !
 ! A82   A(7,20,18)            112.3822                                         !
 ! A83   A(7,20,23)            108.3638                                         !
 ! A84   A(7,20,47)            111.0545                                         !
 ! A85   A(18,20,23)           108.8957                                         !
 ! A86   A(18,20,47)           108.7636                                         !
 ! A87   A(23,20,47)           107.2284                                         !
 ! A88   A(5,21,8)             118.214                                          !
 ! A89   A(14,22,15)           109.5805                                         !
 ! A90   A(14,22,18)           113.0142                                         !
 ! A91   A(14,22,48)           108.3139                                         !
 ! A92   A(15,22,18)           109.4088                                         !
 ! A93   A(15,22,48)           107.7909                                         !
 ! A94   A(18,22,48)           108.5899                                         !
 ! A95   A(20,23,49)           109.3477                                         !
 ! A96   A(9,24,19)            120.716                                          !
 ! D1    D(8,1,2,9)             -0.0034         Frozen                          !
 ! D2    D(8,1,2,26)          -179.9694         Frozen                          !
 ! D3    D(25,1,2,9)          -179.9611         Frozen                          !
 ! D4    D(25,1,2,26)            0.0729         Frozen                          !
 ! D5    D(2,1,8,6)              0.0141         Frozen                          !
 ! D6    D(2,1,8,21)           179.9994         Frozen                          !
 ! D7    D(25,1,8,6)           179.9713         Frozen                          !
 ! D8    D(25,1,8,21)           -0.0434         Frozen                          !
 ! D9    D(1,2,9,4)             -0.0093         Frozen                          !
 ! D10   D(1,2,9,24)           179.9793         Frozen                          !
 ! D11   D(26,2,9,4)           179.9564         Frozen                          !
 ! D12   D(26,2,9,24)           -0.055          Frozen                          !
 ! D13   D(7,3,5,21)            -0.0017         Frozen                          !
 ! D14   D(7,3,5,29)           179.9645         Frozen                          !
 ! D15   D(27,3,5,21)          179.9766         Frozen                          !
 ! D16   D(27,3,5,29)           -0.0572         Frozen                          !
 ! D17   D(5,3,7,6)             -0.0057         Frozen                          !
 ! D18   D(5,3,7,20)           179.9936         Frozen                          !
 ! D19   D(27,3,7,6)          -179.9837         Frozen                          !
 ! D20   D(27,3,7,20)            0.0156         Frozen                          !
 ! D21   D(9,4,6,7)           -180.0            Frozen                          !
 ! D22   D(9,4,6,8)             -0.0001         Frozen                          !
 ! D23   D(28,4,6,7)             0.0012         Frozen                          !
 ! D24   D(28,4,6,8)          -179.9988         Frozen                          !
 ! D25   D(6,4,9,2)              0.011          Frozen                          !
 ! D26   D(6,4,9,24)          -179.9776         Frozen                          !
 ! D27   D(28,4,9,2)          -179.9902         Frozen                          !
 ! D28   D(28,4,9,24)            0.0212         Frozen                          !
 ! D29   D(3,5,21,8)             0.0094         Frozen                          !
 ! D30   D(29,5,21,8)         -179.9586         Frozen                          !
 ! D31   D(4,6,7,3)           -179.9948         Frozen                          !
 ! D32   D(4,6,7,20)             0.006          Frozen                          !
 ! D33   D(8,6,7,3)              0.0052         Frozen                          !
 ! D34   D(8,6,7,20)          -179.994          Frozen                          !
 ! D35   D(4,6,8,1)             -0.0123         Frozen                          !
 ! D36   D(4,6,8,21)          -179.9973         Frozen                          !
 ! D37   D(7,6,8,1)            179.9876         Frozen                          !
 ! D38   D(7,6,8,21)             0.0026         Frozen                          !
 ! D39   D(3,7,20,18)           57.9027         Frozen                          !
 ! D40   D(3,7,20,23)          -62.4767         Frozen                          !
 ! D41   D(3,7,20,47)          179.995          Frozen                          !
 ! D42   D(6,7,20,18)         -122.0981         Frozen                          !
 ! D43   D(6,7,20,23)          117.5226         Frozen                          !
 ! D44   D(6,7,20,47)           -0.0057         Frozen                          !
 ! D45   D(1,8,21,5)          -179.9944         Frozen                          !
 ! D46   D(6,8,21,5)            -0.0097         Frozen                          !
 ! D47   D(2,9,24,19)           -0.0083         Frozen                          !
 ! D48   D(4,9,24,19)          179.9802         Frozen                          !
 ! D49   D(30,10,11,16)       -179.9875         Frozen                          !
 ! D50   D(30,10,11,32)          0.025          Frozen                          !
 ! D51   D(31,10,11,16)         -0.0078         Frozen                          !
 ! D52   D(31,10,11,32)       -179.9953         Frozen                          !
 ! D53   D(10,11,16,15)        -32.608          Frozen                          !
 ! D54   D(10,11,16,17)         91.5637         Frozen                          !
 ! D55   D(10,11,16,41)       -149.9983         Frozen                          !
 ! D56   D(32,11,16,15)        147.3798         Frozen                          !
 ! D57   D(32,11,16,17)        -88.4486         Frozen                          !
 ! D58   D(32,11,16,41)         29.9894         Frozen                          !
 ! D59   D(17,12,14,22)         -0.2901         Frozen                          !
 ! D60   D(17,12,14,37)        119.4271         Frozen                          !
 ! D61   D(17,12,14,38)       -118.4805         Frozen                          !
 ! D62   D(33,12,14,22)        121.5789         Frozen                          !
 ! D63   D(33,12,14,37)       -118.7039         Frozen                          !
 ! D64   D(33,12,14,38)          3.3885         Frozen                          !
 ! D65   D(34,12,14,22)       -122.0958         Frozen                          !
 ! D66   D(34,12,14,37)         -2.3786         Frozen                          !
 ! D67   D(34,12,14,38)        119.7138         Frozen                          !
 ! D68   D(14,12,17,13)        -59.4908         Frozen                          !
 ! D69   D(14,12,17,16)         59.6235         Frozen                          !
 ! D70   D(14,12,17,42)       -179.1422         Frozen                          !
 ! D71   D(33,12,17,13)        178.9949         Frozen                          !
 ! D72   D(33,12,17,16)        -61.8908         Frozen                          !
 ! D73   D(33,12,17,42)         59.3436         Frozen                          !
 ! D74   D(34,12,17,13)         61.8956         Frozen                          !
 ! D75   D(34,12,17,16)       -178.9901         Frozen                          !
 ! D76   D(34,12,17,42)        -57.7558         Frozen                          !
 ! D77   D(18,13,17,12)         64.4139         Frozen                          !
 ! D78   D(18,13,17,16)        -52.8541         Frozen                          !
 ! D79   D(18,13,17,42)       -176.1226         Frozen                          !
 ! D80   D(35,13,17,12)       -174.4757         Frozen                          !
 ! D81   D(35,13,17,16)         68.2564         Frozen                          !
 ! D82   D(35,13,17,42)        -55.0121         Frozen                          !
 ! D83   D(36,13,17,12)        -58.1399         Frozen                          !
 ! D84   D(36,13,17,16)       -175.4078         Frozen                          !
 ! D85   D(36,13,17,42)         61.3236         Frozen                          !
 ! D86   D(17,13,18,20)       -131.2752         Frozen                          !
 ! D87   D(17,13,18,22)         -7.9281         Frozen                          !
 ! D88   D(17,13,18,43)        107.1715         Frozen                          !
 ! D89   D(35,13,18,20)        106.9264         Frozen                          !
 ! D90   D(35,13,18,22)       -129.7265         Frozen                          !
 ! D91   D(35,13,18,43)        -14.6269         Frozen                          !
 ! D92   D(36,13,18,20)         -9.536          Frozen                          !
 ! D93   D(36,13,18,22)        113.8111         Frozen                          !
 ! D94   D(36,13,18,43)       -131.0893         Frozen                          !
 ! D95   D(12,14,22,15)        -62.1405         Frozen                          !
 ! D96   D(12,14,22,18)         60.1554         Frozen                          !
 ! D97   D(12,14,22,48)       -179.4846         Frozen                          !
 ! D98   D(37,14,22,15)        175.4644         Frozen                          !
 ! D99   D(37,14,22,18)        -62.2397         Frozen                          !
 ! D100  D(37,14,22,48)         58.1203         Frozen                          !
 ! D101  D(38,14,22,15)         58.9159         Frozen                          !
 ! D102  D(38,14,22,18)       -178.7882         Frozen                          !
 ! D103  D(38,14,22,48)        -58.4282         Frozen                          !
 ! D104  D(22,15,16,11)        124.531          Frozen                          !
 ! D105  D(22,15,16,17)         -0.979          Frozen                          !
 ! D106  D(22,15,16,41)       -119.2651         Frozen                          !
 ! D107  D(39,15,16,11)       -118.0679         Frozen                          !
 ! D108  D(39,15,16,17)        116.4221         Frozen                          !
 ! D109  D(39,15,16,41)         -1.864          Frozen                          !
 ! D110  D(40,15,16,11)          5.3658         Frozen                          !
 ! D111  D(40,15,16,17)       -120.1442         Frozen                          !
 ! D112  D(40,15,16,41)        121.5697         Frozen                          !
 ! D113  D(16,15,22,14)         62.6579         Frozen                          !
 ! D114  D(16,15,22,18)        -61.7639         Frozen                          !
 ! D115  D(16,15,22,48)       -179.6707         Frozen                          !
 ! D116  D(39,15,22,14)        -57.8067         Frozen                          !
 ! D117  D(39,15,22,18)        177.7715         Frozen                          !
 ! D118  D(39,15,22,48)         59.8647         Frozen                          !
 ! D119  D(40,15,22,14)       -173.7118         Frozen                          !
 ! D120  D(40,15,22,18)         61.8663         Frozen                          !
 ! D121  D(40,15,22,48)        -56.0404         Frozen                          !
 ! D122  D(11,16,17,12)        176.3083         Frozen                          !
 ! D123  D(11,16,17,13)        -66.8584         Frozen                          !
 ! D124  D(11,16,17,42)         55.8554         Frozen                          !
 ! D125  D(15,16,17,12)        -58.6818         Frozen                          !
 ! D126  D(15,16,17,13)         58.1515         Frozen                          !
 ! D127  D(15,16,17,42)       -179.1347         Frozen                          !
 ! D128  D(41,16,17,12)         59.3102         Frozen                          !
 ! D129  D(41,16,17,13)        176.1434         Frozen                          !
 ! D130  D(41,16,17,42)        -61.1427         Frozen                          !
 ! D131  D(13,18,20,7)        -162.6412         Frozen                          !
 ! D132  D(13,18,20,23)        -42.5696         Frozen                          !
 ! D133  D(13,18,20,47)         73.9758         Frozen                          !
 ! D134  D(22,18,20,7)          75.5824         Frozen                          !
 ! D135  D(22,18,20,23)       -164.3459         Frozen                          !
 ! D136  D(22,18,20,47)        -47.8005         Frozen                          !
 ! D137  D(43,18,20,7)         -39.9969         Frozen                          !
 ! D138  D(43,18,20,23)         80.0747         Frozen                          !
 ! D139  D(43,18,20,47)       -163.3799         Frozen                          !
 ! D140  D(13,18,22,14)        -55.1602         Frozen                          !
 ! D141  D(13,18,22,15)         67.2317         Frozen                          !
 ! D142  D(13,18,22,48)       -175.3625         Frozen                          !
 ! D143  D(20,18,22,14)         70.0105         Frozen                          !
 ! D144  D(20,18,22,15)       -167.5976         Frozen                          !
 ! D145  D(20,18,22,48)        -50.1918         Frozen                          !
 ! D146  D(43,18,22,14)       -173.0155         Frozen                          !
 ! D147  D(43,18,22,15)        -50.6236         Frozen                          !
 ! D148  D(43,18,22,48)         66.7822         Frozen                          !
 ! D149  D(44,19,24,9)        -179.9992         Frozen                          !
 ! D150  D(45,19,24,9)          59.207          Frozen                          !
 ! D151  D(46,19,24,9)         -60.4017         Frozen                          !
 ! D152  D(7,20,23,49)          59.9986         Frozen                          !
 ! D153  D(18,20,23,49)        -62.5281         Frozen                          !
 ! D154  D(47,20,23,49)        179.9491         Frozen                          !
 --------------------------------------------------------------------------------
                          Input orientation:                          
 ---------------------------------------------------------------------
 Center     Atomic      Atomic             Coordinates (Angstroms)
 Number     Number       Type             X           Y           Z
 ---------------------------------------------------------------------
      1          6           0       11.982023   40.467529   33.108833
      2          6           0       12.037497   41.716151   32.535273
      3          6           0       11.240035   37.062371   30.750137
      4          6           0       11.600324   40.757708   30.354699
      5          6           0       11.446932   37.013837   32.161781
      6          6           0       11.538416   39.458968   30.923559
      7          6           0       11.290300   38.300871   30.148632
      8          6           0       11.732191   39.300447   32.331120
      9          6           0       11.842962   41.867493   31.129682
     10          6           0        7.272650   35.077409   27.628559
     11          6           0        6.817388   36.046049   26.832778
     12          6           0        8.395150   39.529421   26.188087
     13          6           0        9.605061   37.418660   26.702131
     14          6           0        8.553264   39.971058   27.656445
     15          6           0        7.217925   38.008703   28.397882
     16          6           0        7.065195   37.546148   26.925398
     17          6           0        8.298715   37.995319   26.095964
     18          6           0        9.696248   37.764632   28.203427
     19          6           0       12.147336   44.253922   31.357329
     20          6           0       11.068716   38.363620   28.627602
     21          7           0       11.683801   38.083998   32.927346
     22          7           0        8.554248   38.733845   28.534310
     23          8           0       12.106077   37.630195   27.993833
     24          8           0       11.896801   43.096017   30.563286
     25          1           0       12.132798   40.380738   34.179599
     26          1           0       12.229834   42.579846   33.156866
     27          1           0       11.051986   36.154969   30.183456
     28          1           0       11.456839   40.903206   29.291339
     29          1           0       11.418862   36.066282   32.694921
     30          1           0        7.013317   34.040849   27.441698
     31          1           0        7.913389   35.248221   28.490656
     32          1           0        6.183203   35.738252   26.002958
     33          1           0        7.503159   39.993430   25.756351
     34          1           0        9.243133   39.893155   25.601401
     35          1           0        9.639811   36.334531   26.577045
     36          1           0       10.467151   37.809804   26.156568
     37          1           0        9.480919   40.513036   27.831650
     38          1           0        7.723577   40.600344   27.983445
     39          1           0        6.440113   38.721351   28.680302
     40          1           0        7.219101   37.197351   29.124249
     41          1           0        6.173463   38.026873   26.510030
     42          1           0        8.202341   37.691658   25.051881
     43          1           0        9.514557   36.872872   28.805373
     44          1           0       12.139455   45.097913   30.670105
     45          1           0       13.109268   44.181185   31.877026
     46          1           0       11.371688   44.383864   32.121899
     47          1           0       11.130478   39.386788   28.265856
     48          1           0        8.650838   39.031661   29.510696
     49          1           0       12.079667   36.712165   28.295536
 ---------------------------------------------------------------------
                    Distance matrix (angstroms):
                    1          2          3          4          5
     1  C    0.000000
     2  C    1.375175   0.000000
     3  C    4.208217   5.047804   0.000000
     4  C    2.795559   2.421702   3.733858   0.000000
     5  C    3.620941   4.753948   1.427551   4.160005   0.000000
     6  C    2.447326   2.818081   2.421318   1.419211   2.742303
     7  C    3.733051   4.233024   1.377758   2.484879   2.394527
     8  C    1.424546   2.443464   2.784010   2.459113   2.310548
     9  C    2.428225   1.427037   4.857651   1.375171   4.977956
    10  C    9.014709   9.531658   5.424433   7.643716   6.459449
    11  C    9.252664   9.587390   5.994866   7.581565   7.125136
    12  C    7.851269   7.637752   5.915405   5.398378   7.164256
    13  C    7.482738   7.642691   4.380232   5.335875   5.776171
    14  C    6.459985   6.244053   5.024951   4.145355   6.116905
    15  C    7.136912   7.354690   4.754579   5.530966   5.748147
    16  C    8.422857   8.578078   5.682602   6.530055   6.848553
    17  C    8.298126   8.323928   5.584182   6.055430   6.904253
    18  C    6.049250   6.313545   3.059768   4.148732   4.392853
    19  C    4.175149   2.799982   7.273945   3.678043   7.318233
    20  C    5.034083   5.239074   2.495547   2.999521   3.802024
    21  N    2.408961   3.670335   2.445585   3.711361   1.336952
    22  N    5.973404   6.085629   3.862275   4.085146   4.948191
    23  O    5.850562   6.109372   2.944429   3.951052   4.264523
    24  O    3.660057   2.410925   6.072160   2.366241   6.304798
    25  H    1.084807   2.120428   4.854873   3.880141   3.984723
    26  H    2.127346   1.081360   6.100375   3.401266   5.708203
    27  H    5.293483   6.117926   1.086217   4.638448   2.192580
    28  H    3.878001   3.394283   4.114257   1.082817   4.833914
    29  H    4.456393   5.685878   2.192340   5.245859   1.087606
    30  H    9.904881  10.492719   6.159587   8.639583   7.125643
    31  H    8.069852   8.671869   4.411686   6.886407   5.392633
    32  H   10.319197  10.615045   7.061200   8.571918   8.201528
    33  H    8.622295   8.335573   6.891535   6.206101   8.090788
    34  H    8.012051   7.694828   6.205678   5.375653   7.495718
    35  H    8.076625   8.379213   4.528263   6.138304   5.909011
    36  H    7.595546   7.642867   4.717720   5.253429   6.136458
    37  H    5.840056   5.487044   4.849654   3.304167   5.904205
    38  H    6.664953   6.369778   5.704149   4.547172   6.647172
    39  H    7.305737   7.427001   5.484131   5.794664   6.332814
    40  H    7.018290   7.434486   4.339314   5.777998   5.209110
    41  H    9.123615   9.181570   6.676745   7.189559   7.796025
    42  H    9.322335   9.322346   6.487967   7.004772   7.844584
    43  H    6.126149   6.613224   2.606778   4.673626   3.875490
    44  H    5.235708   3.863362   8.086118   4.384921   8.249665
    45  H    4.071765   2.767377   7.445899   4.039132   7.363105
    46  H    4.084634   2.780445   7.450056   4.040332   7.370519
    47  H    5.034635   4.947377   3.403905   2.542330   4.572666
    48  H    5.109315   5.274847   3.481130   3.520092   4.349484
    49  H    6.105744   6.558736   2.617764   4.564684   3.929276
                    6          7          8          9         10
     6  C    0.000000
     7  C    1.415366   0.000000
     8  C    1.429653   2.440835   0.000000
     9  C    2.436437   3.740145   2.836450   0.000000
    10  C    6.946355   5.734369   7.735350   8.902295   0.000000
    11  C    7.118329   6.007167   8.060903   8.809596   1.333715
    12  C    5.684169   5.057385   6.994650   6.463231   4.812004
    13  C    5.071604   3.936584   6.304865   6.663597   3.432181
    14  C    4.455043   4.061020   5.692793   5.146062   5.058513
    15  C    5.210466   4.442379   6.125159   6.613922   3.031062
    16  C    6.297132   5.367528   7.353928   7.692664   2.575295
    17  C    5.995298   5.046490   7.236663   7.272808   3.451936
    18  C    3.696414   2.571454   4.851973   5.477665   3.664078
    19  C    4.852889   6.134678   5.065326   2.416508  11.039687
    20  C    2.586855   1.538366   3.877356   4.374584   5.119315
    21  N    2.434511   2.814805   1.355572   4.191868   7.521634
    22  N    3.890960   3.206163   4.983586   5.231763   3.978995
    23  O    3.499992   2.399679   4.662788   5.278018   5.478336
    24  O    3.672378   4.851103   4.190308   1.353874   9.710482
    25  H    3.435804   4.613495   2.178161   3.405354   9.729463
    26  H    3.899436   5.314303   3.418181   2.183253  10.555682
    27  H    3.420639   2.159375   3.869001   5.844135   4.687432
    28  H    2.180968   2.744965   3.447452   2.111503   7.362892
    29  H    3.829142   3.390207   3.269610   6.023610   6.620949
    30  H    7.871206   6.615729   8.592880   9.908736   1.084724
    31  H    6.065495   4.844697   6.764093   8.137614   1.087628
    32  H    8.169109   7.059466   9.139263   9.792026   2.065474
    33  H    6.577917   6.041467   7.848091   7.156723   5.265507
    34  H    5.812246   5.234842   7.199711   6.420204   5.584226
    35  H    5.679699   4.398504   6.803241   7.496269   2.879147
    36  H    5.156699   4.105520   6.476684   6.564263   4.453940
    37  H    3.860603   3.679122   5.175310   4.276777   5.870582
    38  H    4.949748   4.764149   6.054832   5.336085   5.552665
    39  H    5.618628   5.084989   6.455224   6.714794   3.882988
    40  H    5.197009   4.340711   5.922416   6.871105   2.595016
    41  H    7.093155   6.284625   8.149021   8.260434   3.340458
    42  H    6.980643   5.990284   8.248356   8.223830   3.786542
    43  H    3.907762   2.645144   4.820987   5.980812   3.103986
    44  H    5.676548   6.869700   6.044456   3.276391  11.547610
    45  H    5.067150   6.393284   5.091576   2.741391  11.618706
    46  H    5.071334   6.395562   5.100477   2.745673  11.117659
    47  H    2.689797   2.179358   4.110461   3.855260   5.818912
    48  H    3.242974   2.812077   4.185902   4.566477   4.591073
    49  H    3.839841   2.565356   4.806858   5.887768   5.121006
                   11         12         13         14         15
    11  C    0.000000
    12  C    3.877994   0.000000
    13  C    3.110024   2.486652   0.000000
    14  C    4.370056   1.541466   2.920912   0.000000
    15  C    2.542045   2.929443   2.986995   2.486704   0.000000
    16  C    1.523247   2.499156   2.552846   2.937511   1.550965
    17  C    2.556732   1.539887   1.551295   2.530501   2.543052
    18  C    3.622160   2.978076   1.543341   2.544390   2.497893
    19  C   10.781887   7.944865   8.651869   6.704985   8.488827
    20  C    5.163944   3.802405   2.596666   3.139188   3.873930
    21  N    8.060953   7.636890   6.596752   6.414332   6.361271
    22  N    3.624382   2.482542   2.488131   1.517018   1.526501
    23  O    5.641613   4.542990   2.822822   4.268015   4.919406
    24  O    9.456171   6.642630   7.238299   5.421654   7.243040
    25  H   10.050815   8.863353   8.430651   7.452009   7.950521
    26  H   10.582021   8.519025   8.671267   7.111791   8.286285
    27  H    5.400993   5.865891   3.976195   5.214588   4.617860
    28  H    7.152692   4.570711   4.719655   3.460134   5.210068
    29  H    7.452429   7.967123   6.405648   6.988932   6.315490
    30  H    2.104756   5.797018   4.321308   6.130655   4.086565
    31  H    2.141567   4.884936   3.281979   4.838444   2.848252
    32  H    1.088820   4.393170   3.875787   5.125218   3.458505
    33  H    4.148589   1.094234   3.455710   2.171077   3.316351
    34  H    4.711767   1.093425   2.732348   2.169146   3.933565
    35  H    2.848630   3.450767   1.091875   3.945886   3.461767
    36  H    4.109606   2.692817   1.092626   3.253246   3.952281
    37  H    5.295858   2.201748   3.296420   1.088568   3.422491
    38  H    4.784017   2.195723   3.912143   1.091472   2.672835
    39  H    3.273060   3.268988   3.953108   2.659974   1.092071
    40  H    2.595710   3.929719   3.407115   3.409969   1.088991
    41  H    2.107717   2.701331   3.490371   3.279874   2.157595
    42  H    2.792439   2.169219   2.182998   3.478874   3.502187
    43  H    3.442308   3.893650   2.174788   3.441348   2.594355
    44  H   11.179701   8.069474   9.007713   6.944606   8.924201
    45  H   11.454808   8.730742   9.208189   7.503043   9.214765
    46  H   10.873620   8.224082   9.000496   6.881617   8.471407
    47  H    5.640655   3.437948   2.940350   2.711971   4.150256
    48  H    4.409837   3.369403   3.376441   2.080922   2.082796
    49  H    5.502268   5.094501   3.026838   4.844001   5.032696
                   16         17         18         19         20
    16  C    0.000000
    17  C    1.552832   0.000000
    18  C    2.933178   2.539235   0.000000
    19  C    9.511278   9.036811   7.620093   0.000000
    20  C    4.426504   3.770642   1.556400   6.581070   0.000000
    21  N    7.592376   7.624595   5.134956   6.383399   4.352507
    22  N    2.493291   2.560517   1.533956   7.165959   2.543288
    23  O    5.153553   4.269805   2.422659   7.428901   1.419752
    24  O    8.208514   7.675956   6.231776   1.426189   5.179592
    25  H    9.291874   9.259350   6.963865   4.792387   6.002141
    26  H    9.531149   9.291282   7.358118   2.459201   6.295950
    27  H    5.333369   5.260701   2.889559   8.256561   2.701685
    28  H    6.012824   5.351633   3.759505   3.996548   2.653428
    29  H    7.377792   7.550015   5.101500   8.328101   4.684383
    30  H    3.543497   4.370478   4.652409  12.082929   6.044748
    31  H    2.906877   3.664639   3.097323  10.356002   4.436278
    32  H    2.212983   3.094898   4.614083  11.694307   6.135923
    33  H    2.747303   2.177313   3.970562   8.431555   4.859379
    34  H    3.464798   2.176763   3.392118   7.783405   3.850990
    35  H    2.866708   2.188195   2.166447   9.584130   3.219279
    36  H    3.497702   2.177201   2.187685   8.449709   2.602807
    37  H    3.931849   3.278583   2.781782   5.790891   2.788301
    38  H    3.298643   3.267954   3.461371   6.655927   4.075270
    39  H    2.202616   3.265015   3.427118   8.387384   4.642706
    40  H    2.231656   3.312526   2.702957   8.892094   4.052946
    41  H    1.094903   2.165443   3.917445   9.897454   5.344250
    42  H    2.196438   1.091608   3.488456   9.918920   4.631784
    43  H    3.160218   3.174753   1.091139   8.241596   2.160866
    44  H    9.838704   9.280134   8.113617   1.088421   7.118216
    45  H   10.250520   9.737917   8.143475   1.095759   6.968979
    46  H    9.607491   9.304223   7.872469   1.096851   6.967441
    47  H    4.659540   3.829295   2.166172   5.854929   1.086990
    48  H    3.377096   3.585860   2.099333   6.550386   2.659374
    49  H    5.264764   4.558531   2.607078   8.139856   1.964585
                   21         22         23         24         25
    21  N    0.000000
    22  N    5.432786   0.000000
    23  O    4.972304   3.758410   0.000000
    24  O    5.545672   5.858152   6.043269   0.000000
    25  H    2.654195   6.883862   6.769778   4.528372   0.000000
    26  H    4.534698   7.047672   7.153410   2.665333   2.427236
    27  H    3.413103   3.950819   2.842859   7.002579   5.915609
    28  H    4.606516   3.701925   3.580172   2.572904   4.962356
    29  H    2.048265   5.712494   5.001831   7.361349   4.618279
    30  H    8.261526   5.058901   6.254955  10.751223  10.573674
    31  H    6.476253   3.544317   4.847605   9.041641   8.747012
    32  H    9.149112   4.582922   6.528665  10.372006  11.126895
    33  H    8.517445   3.226205   5.637204   7.213651   9.619494
    34  H    7.930913   3.228083   4.363619   6.474611   9.064953
    35  H    6.896727   3.281164   3.125460   8.167118   8.965801
    36  H    6.884682   3.188527   2.468579   7.029019   8.587963
    37  H    6.059623   2.125552   3.902375   4.468794   6.880874
    38  H    6.815976   2.115960   5.294167   5.504522   7.608007
    39  H    6.777895   2.119207   5.810767   7.242843   8.087181
    40  H    5.931546   2.119306   5.034652   7.664592   7.735304
    41  H    8.458666   3.204006   6.128208   8.653421   9.993830
    42  H    8.619597   3.652027   4.888560   8.557553  10.295381
    43  H    4.812806   2.111607   2.819240   6.891507   6.931277
    44  H    7.382260   7.610302   7.932866   2.019377   5.879484
    45  H    6.349080   7.848278   7.681214   2.091310   4.549586
    46  H    6.358811   7.261645   7.949359   2.088916   4.564914
    47  H    4.871644   2.671209   2.027662   4.429877   6.079880
    48  H    4.665879   1.025356   4.025377   5.306902   5.978520
    49  H    4.846885   4.070968   0.966696   6.777145   6.934222
                   26         27         28         29         30
    26  H    0.000000
    27  H    7.176875   0.000000
    28  H    4.283800   4.848250   0.000000
    29  H    6.580090   2.539669   5.914528   0.000000
    30  H   11.523440   5.319548   8.382004   7.148955   0.000000
    31  H    9.703502   3.679478   6.721309   5.534745   1.835263
    32  H   11.599463   6.430805   8.080930   8.503063   2.374917
    33  H    9.154159   6.850344   5.381024   8.882509   6.205929
    34  H    8.557087   6.183948   4.419993   8.348460   6.527500
    35  H    9.434311   3.877200   5.616206   6.376941   3.592641
    36  H    8.652429   4.392760   4.513912   6.833424   5.271200
    37  H    6.339256   5.195381   2.487405   6.868817   6.937602
    38  H    7.140663   5.973249   3.967311   7.510715   6.620040
    39  H    8.273360   5.487728   5.504671   6.924918   4.875428
    40  H    8.386936   4.110898   5.632024   5.627344   3.582852
    41  H   10.079168   6.387336   6.627445   8.343320   4.178725
    42  H   10.286198   6.067533   6.235287   8.450084   4.522544
    43  H    7.673185   2.185906   4.500246   4.405173   4.016985
    44  H    3.540171   9.021954   4.467945   9.283830  12.607877
    45  H    2.230623   8.456992   4.490150   8.329350  12.635631
    46  H    2.249900   8.460170   4.487126   8.337431  12.160495
    47  H    5.943583   3.758723   1.859476   5.543062   6.797743
    48  H    6.220401   3.807030   3.380006   5.157007   5.645390
    49  H    7.621336   2.220549   4.352512   4.495377   5.790758
                   31         32         33         34         35
    31  H    0.000000
    32  H    3.069579   0.000000
    33  H    5.491969   4.462022   0.000000
    34  H    5.629514   5.175678   1.749736   0.000000
    35  H    2.796875   3.554330   4.315827   3.711205   0.000000
    36  H    4.304809   4.761002   3.703194   2.479270   1.742907
    37  H    5.532605   6.084210   2.913484   2.326973   4.365682
    38  H    5.379453   5.471291   2.318809   2.912611   4.883347
    39  H    3.777452   4.016597   3.361211   4.325469   4.512058
    40  H    2.163927   3.597848   4.386511   4.875912   3.618361
    41  H    3.830291   2.344143   2.490677   3.705602   3.857989
    42  H    4.228363   2.966018   2.506649   2.496359   2.496847
    43  H    2.302668   4.498756   4.804179   4.411487   2.295854
    44  H   10.937371  12.035882   8.467347   7.821122   9.989906
    45  H   10.874857  12.399926   9.296688   8.527466  10.084488
    46  H   10.421408  11.794424   8.646481   8.198421   9.926559
    47  H    5.246707   6.550424   4.452311   3.304209   3.793474
    48  H    3.987322   5.407401   4.041939   4.046675   4.105958
    49  H    4.420303   6.400993   6.177264   5.042122   3.008109
                   36         37         38         39         40
    36  H    0.000000
    37  H    3.329566   0.000000
    38  H    4.318772   1.766045   0.000000
    39  H    4.839131   3.629993   2.379812   0.000000
    40  H    4.442078   4.216681   3.624402   1.768188   0.000000
    41  H    4.313677   4.343610   3.346126   2.294228   2.935235
    42  H    2.522629   4.161976   4.157371   4.163070   4.218445
    43  H    2.966723   3.768296   4.216304   3.589529   2.340103
    44  H    8.734137   6.012133   6.851733   8.780795   9.434958
    45  H    8.960966   6.556318   7.549043   9.192740   9.541791
    46  H    8.923095   6.079849   6.689585   8.260090   8.824730
    47  H    2.715875   2.044019   3.627595   4.755428   4.563917
    48  H    4.005260   2.388033   2.377619   2.381838   2.358793
    49  H    2.894859   4.627667   5.847295   5.999121   4.954520
                   41         42         43         44         45
    41  H    0.000000
    42  H    2.520895   0.000000
    43  H    4.214644   4.059683   0.000000
    44  H   10.143909  10.095441   8.832815   0.000000
    45  H   10.713804  10.619534   8.704506   1.799330   0.000000
    46  H    9.946153  10.237946   8.418033   1.790820   1.766415
    47  H    5.431785   4.666593   3.036783   6.278169   6.320000
    48  H    4.018828   4.677370   2.429786   7.093243   7.210736
    49  H    6.308703   5.149211   2.620220   8.715671   8.347060
                   46         47         48         49
    46  H    0.000000
    47  H    6.316488   0.000000
    48  H    6.547327   2.797205   0.000000
    49  H    8.602166   2.838212   4.314342   0.000000
 Stoichiometry    C20H25N2O2(1+)
 Framework group  C1[X(C20H25N2O2)]
 Deg. of freedom   141
 Full point group                 C1      NOp   1
 Largest Abelian subgroup         C1      NOp   1
 Largest concise Abelian subgroup C1      NOp   1
                         Standard orientation:                         
 ---------------------------------------------------------------------
 Center     Atomic      Atomic             Coordinates (Angstroms)
 Number     Number       Type             X           Y           Z
 ---------------------------------------------------------------------
      1          6           0        4.128207    1.184277   -0.829183
      2          6           0        4.499873   -0.124038   -0.626004
      3          6           0        0.330021    2.539300    0.373638
      4          6           0        2.354236   -0.598200    0.391862
      5          6           0        1.301706    3.373862   -0.256627
      6          6           0        1.947957    0.746982    0.192916
      7          6           0        0.675615    1.223239    0.589889
      8          6           0        2.848136    1.665983   -0.430800
      9          6           0        3.596486   -1.036322   -0.003057
     10          6           0       -4.878075    1.572452   -0.794870
     11          6           0       -5.077622    0.254563   -0.841188
     12          6           0       -2.676764   -2.554787    0.334513
     13          6           0       -2.892668   -0.276534    1.307337
     14          6           0       -1.419675   -2.101465   -0.433825
     15          6           0       -2.773631   -0.424152   -1.673633
     16          6           0       -4.042202   -0.861328   -0.895753
     17          6           0       -3.649850   -1.375214    0.516078
     18          6           0       -1.704582    0.256431    0.478904
     19          6           0        5.246026   -2.790272   -0.208451
     20          6           0       -0.364759    0.315800    1.268669
     21          7           0        2.512636    2.961714   -0.645501
     22          7           0       -1.563208   -0.628284   -0.766212
     23          8           0       -0.620076    0.823460    2.569742
     24          8           0        3.960470   -2.324847    0.197429
     25          1           0        4.833823    1.856614   -1.305497
     26          1           0        5.480150   -0.454425   -0.941032
     27          1           0       -0.638011    2.935366    0.666750
     28          1           0        1.690230   -1.312778    0.861933
     29          1           0        1.088752    4.421763   -0.455226
     30          1           0       -5.718072    2.257808   -0.758553
     31          1           0       -3.896056    2.039944   -0.789929
     32          1           0       -6.112919   -0.082614   -0.840709
     33          1           0       -3.165457   -3.371703   -0.205095
     34          1           0       -2.386489   -2.961587    1.307052
     35          1           0       -3.562901    0.549608    1.553235
     36          1           0       -2.553531   -0.680622    2.264172
     37          1           0       -0.507054   -2.232091    0.145001
     38          1           0       -1.304616   -2.637396   -1.377673
     39          1           0       -2.611887   -1.039397   -2.561288
     40          1           0       -2.772686    0.621716   -1.977048
     41          1           0       -4.511051   -1.683162   -1.446737
     42          1           0       -4.529268   -1.702220    1.074020
     43          1           0       -1.925210    1.258982    0.109039
     44          1           0        5.284481   -3.843646    0.062813
     45          1           0        6.047772   -2.229438    0.284861
     46          1           0        5.384294   -2.674963   -1.290425
     47          1           0        0.016639   -0.695217    1.386684
     48          1           0       -0.729554   -0.332247   -1.284609
     49          1           0       -0.961120    1.725336    2.500398
 ---------------------------------------------------------------------
 Rotational constants (GHZ):           0.4091670           0.1455749           0.1228405
 Standard basis: 6-31G(d,p) (6D, 7F)
 There are   485 symmetry adapted cartesian basis functions of A   symmetry.
 There are   485 symmetry adapted basis functions of A   symmetry.
   485 basis functions,   847 primitive gaussians,   485 cartesian basis functions
    87 alpha electrons       87 beta electrons
       nuclear repulsion energy      2112.7345494929 Hartrees.
 NAtoms=   49 NActive=   49 NUniq=   49 SFac= 1.00D+00 NAtFMM=   60 NAOKFM=F Big=F
 Integral buffers will be    131072 words long.
 Raffenetti 1 integral format.
 Two-electron integral symmetry is turned on.
 ------------------------------------------------------------------------------
 Polarizable Continuum Model (PCM)
 =================================
 Model                : PCM.
 Atomic radii         : UFF (Universal Force Field).
 Polarization charges : Total charges.
 Charge compensation  : None.
 Solution method      : On-the-fly selection.
 Cavity type          : Scaled VdW (van der Waals Surface) (Alpha=1.100).
 Cavity algorithm     : GePol (No added spheres)
                        Default sphere list used, NSphG=   49.
                        Lebedev-Laikov grids with approx.  5.0 points / Ang**2.
                        Smoothing algorithm: York/Karplus (Gamma=1.0000).
                        Polarization charges: spherical gaussians, with
                                              point-specific exponents (IZeta= 3).
                        Self-potential: point-specific (ISelfS= 7).
                        Self-field    : sphere-specific E.n sum rule (ISelfD= 2).
 Solvent              : Water, Eps=  78.355300 Eps(inf)=   1.777849
 ------------------------------------------------------------------------------
 One-electron integrals computed using PRISM.
 NBasis=   485 RedAO= T EigKep=  3.35D-04  NBF=   485
 NBsUse=   485 1.00D-06 EigRej= -1.00D+00 NBFU=   485
 Initial guess from the checkpoint file:  "G3.chk"
 B after Tr=    -0.000000   -0.000000   -0.000000
         Rot=    1.000000   -0.000000   -0.000000    0.000000 Ang=   0.00 deg.
 Requested convergence on RMS density matrix=1.00D-08 within 128 cycles.
 Requested convergence on MAX density matrix=1.00D-06.
 Requested convergence on             energy=1.00D-06.
 No special actions if energy rises.
 Inv3:  Mode=1 IEnd=    29635347.
 Iteration    1 A*A^-1 deviation from unit magnitude is 6.00D-15 for   3120.
 Iteration    1 A*A^-1 deviation from orthogonality  is 4.22D-15 for   3116   1454.
 Iteration    1 A^-1*A deviation from unit magnitude is 6.00D-15 for   3120.
 Iteration    1 A^-1*A deviation from orthogonality  is 5.69D-12 for   3112   2963.
 Error on total polarization charges =  0.01047
 SCF Done:  E(RHF) =  -1030.40822638     A.U. after   14 cycles
            NFock= 14  Conv=0.67D-08     -V/T= 2.0022

 **********************************************************************

            Population analysis using the SCF density.

 **********************************************************************

 Orbital symmetries:
       Occupied  (A) (A) (A) (A) (A) (A) (A) (A) (A) (A) (A) (A)
                 (A) (A) (A) (A) (A) (A) (A) (A) (A) (A) (A) (A)
                 (A) (A) (A) (A) (A) (A) (A) (A) (A) (A) (A) (A)
                 (A) (A) (A) (A) (A) (A) (A) (A) (A) (A) (A) (A)
                 (A) (A) (A) (A) (A) (A) (A) (A) (A) (A) (A) (A)
                 (A) (A) (A) (A) (A) (A) (A) (A) (A) (A) (A) (A)
                 (A) (A) (A) (A) (A) (A) (A) (A) (A) (A) (A) (A)
                 (A) (A) (A)
       Virtual   (A) (A) (A) (A) (A) (A) (A) (A) (A) (A) (A) (A)
                 (A) (A) (A) (A) (A) (A) (A) (A) (A) (A) (A) (A)
                 (A) (A) (A) (A) (A) (A) (A) (A) (A) (A) (A) (A)
                 (A) (A) (A) (A) (A) (A) (A) (A) (A) (A) (A) (A)
                 (A) (A) (A) (A) (A) (A) (A) (A) (A) (A) (A) (A)
                 (A) (A) (A) (A) (A) (A) (A) (A) (A) (A) (A) (A)
                 (A) (A) (A) (A) (A) (A) (A) (A) (A) (A) (A) (A)
                 (A) (A) (A) (A) (A) (A) (A) (A) (A) (A) (A) (A)
                 (A) (A) (A) (A) (A) (A) (A) (A) (A) (A) (A) (A)
                 (A) (A) (A) (A) (A) (A) (A) (A) (A) (A) (A) (A)
                 (A) (A) (A) (A) (A) (A) (A) (A) (A) (A) (A) (A)
                 (A) (A) (A) (A) (A) (A) (A) (A) (A) (A) (A) (A)
                 (A) (A) (A) (A) (A) (A) (A) (A) (A) (A) (A) (A)
                 (A) (A) (A) (A) (A) (A) (A) (A) (A) (A) (A) (A)
                 (A) (A) (A) (A) (A) (A) (A) (A) (A) (A) (A) (A)
                 (A) (A) (A) (A) (A) (A) (A) (A) (A) (A) (A) (A)
                 (A) (A) (A) (A) (A) (A) (A) (A) (A) (A) (A) (A)
                 (A) (A) (A) (A) (A) (A) (A) (A) (A) (A) (A) (A)
                 (A) (A) (A) (A) (A) (A) (A) (A) (A) (A) (A) (A)
                 (A) (A) (A) (A) (A) (A) (A) (A) (A) (A) (A) (A)
                 (A) (A) (A) (A) (A) (A) (A) (A) (A) (A) (A) (A)
                 (A) (A) (A) (A) (A) (A) (A) (A) (A) (A) (A) (A)
                 (A) (A) (A) (A) (A) (A) (A) (A) (A) (A) (A) (A)
                 (A) (A) (A) (A) (A) (A) (A) (A) (A) (A) (A) (A)
                 (A) (A) (A) (A) (A) (A) (A) (A) (A) (A) (A) (A)
                 (A) (A) (A) (A) (A) (A) (A) (A) (A) (A) (A) (A)
                 (A) (A) (A) (A) (A) (A) (A) (A) (A) (A) (A) (A)
                 (A) (A) (A) (A) (A) (A) (A) (A) (A) (A) (A) (A)
                 (A) (A) (A) (A) (A) (A) (A) (A) (A) (A) (A) (A)
                 (A) (A) (A) (A) (A) (A) (A) (A) (A) (A) (A) (A)
                 (A) (A) (A) (A) (A) (A) (A) (A) (A) (A) (A) (A)
                 (A) (A) (A) (A) (A) (A) (A) (A) (A) (A) (A) (A)
                 (A) (A) (A) (A) (A) (A) (A) (A) (A) (A) (A) (A)
                 (A) (A)
 The electronic state is 1-A.
 Alpha  occ. eigenvalues --  -20.59932 -20.59299 -15.71129 -15.58445 -11.32848
 Alpha  occ. eigenvalues --  -11.31955 -11.31888 -11.30738 -11.30642 -11.29339
 Alpha  occ. eigenvalues --  -11.28909 -11.28706 -11.28077 -11.27002 -11.26435
 Alpha  occ. eigenvalues --  -11.26219 -11.25935 -11.25480 -11.25254 -11.24813
 Alpha  occ. eigenvalues --  -11.24740 -11.24738 -11.24519 -11.23525  -1.41812
 Alpha  occ. eigenvalues --   -1.39436  -1.34437  -1.26886  -1.15292  -1.13400
 Alpha  occ. eigenvalues --   -1.12362  -1.08584  -1.07327  -1.03208  -1.02907
 Alpha  occ. eigenvalues --   -1.02030  -0.96883  -0.94839  -0.91208  -0.89802
 Alpha  occ. eigenvalues --   -0.88970  -0.86925  -0.85838  -0.81736  -0.79703
 Alpha  occ. eigenvalues --   -0.77074  -0.74231  -0.73581  -0.72974  -0.71896
 Alpha  occ. eigenvalues --   -0.71683  -0.71024  -0.67151  -0.66201  -0.65582
 Alpha  occ. eigenvalues --   -0.64959  -0.63875  -0.62846  -0.62154  -0.61941
 Alpha  occ. eigenvalues --   -0.61364  -0.60878  -0.59799  -0.59119  -0.58825
 Alpha  occ. eigenvalues --   -0.58222  -0.57939  -0.56952  -0.56374  -0.56183
 Alpha  occ. eigenvalues --   -0.55893  -0.53200  -0.52118  -0.51832  -0.51602
 Alpha  occ. eigenvalues --   -0.50042  -0.49019  -0.48091  -0.47938  -0.46671
 Alpha  occ. eigenvalues --   -0.46190  -0.44548  -0.42426  -0.41907  -0.37122
 Alpha  occ. eigenvalues --   -0.33386  -0.30252
 Alpha virt. eigenvalues --    0.06145   0.11180   0.14869   0.16005   0.18116
 Alpha virt. eigenvalues --    0.19905   0.20720   0.21661   0.23840   0.24319
 Alpha virt. eigenvalues --    0.24615   0.25661   0.26234   0.26764   0.27580
 Alpha virt. eigenvalues --    0.27756   0.27882   0.28944   0.29670   0.30039
 Alpha virt. eigenvalues --    0.30460   0.30883   0.31120   0.31757   0.32488
 Alpha virt. eigenvalues --    0.32578   0.33121   0.33916   0.34453   0.35111
 Alpha virt. eigenvalues --    0.35568   0.35821   0.36332   0.37505   0.37985
 Alpha virt. eigenvalues --    0.39238   0.39730   0.40298   0.40867   0.41896
 Alpha virt. eigenvalues --    0.44446   0.45021   0.45852   0.46420   0.48175
 Alpha virt. eigenvalues --    0.48413   0.49391   0.50088   0.50650   0.51818
 Alpha virt. eigenvalues --    0.53954   0.55082   0.57168   0.58374   0.63933
 Alpha virt. eigenvalues --    0.65466   0.66947   0.67164   0.67908   0.69417
 Alpha virt. eigenvalues --    0.69598   0.70230   0.71687   0.71877   0.72852
 Alpha virt. eigenvalues --    0.73707   0.74424   0.75050   0.75691   0.76452
 Alpha virt. eigenvalues --    0.77254   0.78604   0.79460   0.80156   0.81172
 Alpha virt. eigenvalues --    0.81408   0.82289   0.82404   0.82673   0.83749
 Alpha virt. eigenvalues --    0.84214   0.84909   0.85370   0.85805   0.87139
 Alpha virt. eigenvalues --    0.87402   0.87581   0.88913   0.89522   0.90273
 Alpha virt. eigenvalues --    0.90852   0.91533   0.92836   0.92986   0.94177
 Alpha virt. eigenvalues --    0.94897   0.96523   0.96766   0.97528   0.99139
 Alpha virt. eigenvalues --    1.00067   1.01471   1.01780   1.03116   1.04215
 Alpha virt. eigenvalues --    1.04924   1.05193   1.05860   1.06143   1.06652
 Alpha virt. eigenvalues --    1.07014   1.07631   1.08373   1.08890   1.09299
 Alpha virt. eigenvalues --    1.09603   1.09742   1.09998   1.10485   1.10865
 Alpha virt. eigenvalues --    1.11731   1.12849   1.13311   1.13995   1.14196
 Alpha virt. eigenvalues --    1.15540   1.16019   1.16426   1.16886   1.17466
 Alpha virt. eigenvalues --    1.18187   1.18834   1.19609   1.20274   1.20946
 Alpha virt. eigenvalues --    1.22191   1.22708   1.23849   1.24840   1.25341
 Alpha virt. eigenvalues --    1.26012   1.27754   1.28760   1.29091   1.29519
 Alpha virt. eigenvalues --    1.31249   1.33395   1.33609   1.34587   1.35895
 Alpha virt. eigenvalues --    1.36159   1.39477   1.41631   1.42237   1.44121
 Alpha virt. eigenvalues --    1.44756   1.46605   1.47957   1.48890   1.50167
 Alpha virt. eigenvalues --    1.50356   1.52473   1.53715   1.54859   1.56760
 Alpha virt. eigenvalues --    1.57287   1.59335   1.60687   1.61103   1.63117
 Alpha virt. eigenvalues --    1.64789   1.66024   1.66499   1.68016   1.69333
 Alpha virt. eigenvalues --    1.70095   1.71896   1.72574   1.72896   1.73187
 Alpha virt. eigenvalues --    1.73744   1.74635   1.74887   1.77382   1.79530
 Alpha virt. eigenvalues --    1.80509   1.82560   1.84131   1.86842   1.87140
 Alpha virt. eigenvalues --    1.90873   1.92295   1.94816   1.95086   1.96594
 Alpha virt. eigenvalues --    1.97926   2.00151   2.00601   2.00675   2.03064
 Alpha virt. eigenvalues --    2.04213   2.05350   2.06307   2.07400   2.07927
 Alpha virt. eigenvalues --    2.08563   2.09489   2.09734   2.11502   2.11913
 Alpha virt. eigenvalues --    2.13183   2.14417   2.14754   2.15622   2.16417
 Alpha virt. eigenvalues --    2.17353   2.17873   2.18338   2.18352   2.19404
 Alpha virt. eigenvalues --    2.19818   2.20969   2.21347   2.21981   2.23443
 Alpha virt. eigenvalues --    2.24221   2.25134   2.25550   2.26299   2.26824
 Alpha virt. eigenvalues --    2.29003   2.29586   2.29917   2.30913   2.31398
 Alpha virt. eigenvalues --    2.31761   2.32148   2.33596   2.34741   2.35270
 Alpha virt. eigenvalues --    2.36221   2.36530   2.38062   2.39024   2.39717
 Alpha virt. eigenvalues --    2.42616   2.43603   2.44507   2.46678   2.47295
 Alpha virt. eigenvalues --    2.48777   2.50392   2.51048   2.52762   2.54057
 Alpha virt. eigenvalues --    2.54545   2.55662   2.56448   2.56993   2.58503
 Alpha virt. eigenvalues --    2.58624   2.60103   2.60254   2.61833   2.62873
 Alpha virt. eigenvalues --    2.64037   2.65674   2.66223   2.66661   2.66903
 Alpha virt. eigenvalues --    2.67540   2.68049   2.69413   2.70308   2.70998
 Alpha virt. eigenvalues --    2.71372   2.72881   2.73703   2.73870   2.74842
 Alpha virt. eigenvalues --    2.75681   2.75965   2.76901   2.77450   2.78431
 Alpha virt. eigenvalues --    2.79973   2.81326   2.81895   2.82785   2.83346
 Alpha virt. eigenvalues --    2.84339   2.84849   2.86548   2.87450   2.88146
 Alpha virt. eigenvalues --    2.89049   2.89601   2.90836   2.91242   2.91894
 Alpha virt. eigenvalues --    2.92315   2.94027   2.94526   2.95726   2.96402
 Alpha virt. eigenvalues --    2.97979   2.98299   2.99060   2.99720   3.02043
 Alpha virt. eigenvalues --    3.03127   3.03642   3.03788   3.04788   3.05167
 Alpha virt. eigenvalues --    3.06573   3.07158   3.08250   3.08704   3.09208
 Alpha virt. eigenvalues --    3.10010   3.10753   3.11112   3.12147   3.13023
 Alpha virt. eigenvalues --    3.13647   3.15839   3.17031   3.17375   3.18680
 Alpha virt. eigenvalues --    3.19282   3.21397   3.22852   3.24570   3.26970
 Alpha virt. eigenvalues --    3.28184   3.30289   3.32211   3.33510   3.35088
 Alpha virt. eigenvalues --    3.36739   3.37945   3.41609   3.42009   3.43792
 Alpha virt. eigenvalues --    3.50270   3.54406   3.56856   3.58248   3.60147
 Alpha virt. eigenvalues --    3.62956   3.64460   3.64936   3.68183   3.68433
 Alpha virt. eigenvalues --    3.70181   3.72155   3.74425   3.75491   3.76565
 Alpha virt. eigenvalues --    3.77894   3.78083   3.78717   3.80170   3.82407
 Alpha virt. eigenvalues --    3.83626   3.83969   3.84512   3.86250   3.90492
 Alpha virt. eigenvalues --    3.93154   4.04528   4.07660   4.15365   4.36725
 Alpha virt. eigenvalues --    4.48478   4.50573   4.56180   4.57237   4.64104
 Alpha virt. eigenvalues --    4.67077   4.69804   4.73021   4.82324   4.85344
 Alpha virt. eigenvalues --    4.85872   4.86977   4.89702   4.92600   4.94087
 Alpha virt. eigenvalues --    4.95375   5.03828   5.07117   5.15748   5.24074
 Alpha virt. eigenvalues --    5.27562   5.32002   5.51239
          Condensed to atoms (all electrons):
               1          2          3          4          5          6
     1  C    4.881736   0.546186   0.000096  -0.034690   0.002397  -0.046579
     2  C    0.546186   5.003302   0.000008  -0.056194  -0.000058  -0.024484
     3  C    0.000096   0.000008   5.002389   0.003849   0.485286  -0.030891
     4  C   -0.034690  -0.056194   0.003849   4.984455  -0.000231   0.438321
     5  C    0.002397  -0.000058   0.485286  -0.000231   4.636803  -0.020722
     6  C   -0.046579  -0.024484  -0.030891   0.438321  -0.020722   4.855311
     7  C    0.005072  -0.000125   0.534616  -0.049438  -0.053097   0.494066
     8  C    0.506804  -0.047449  -0.021432  -0.025690  -0.077776   0.511295
     9  C   -0.034333   0.476752  -0.000137   0.621079   0.000044  -0.031081
    10  C   -0.000000  -0.000000  -0.000011   0.000000  -0.000000  -0.000000
    11  C   -0.000000  -0.000000   0.000000  -0.000000   0.000000   0.000000
    12  C   -0.000000  -0.000000  -0.000002   0.000018  -0.000000  -0.000002
    13  C   -0.000000   0.000000  -0.000040   0.000013  -0.000001  -0.000110
    14  C   -0.000000   0.000000   0.000006  -0.000633   0.000000   0.000144
    15  C    0.000000  -0.000000  -0.000108  -0.000003  -0.000001   0.000018
    16  C    0.000000   0.000000   0.000001   0.000000   0.000000  -0.000000
    17  C    0.000000   0.000000  -0.000005  -0.000001   0.000000   0.000000
    18  C    0.000002   0.000001  -0.011702  -0.000349   0.000029   0.002555
    19  C   -0.000247  -0.007392  -0.000000   0.001428   0.000000   0.000005
    20  C   -0.000098   0.000001  -0.040721  -0.009555   0.001915  -0.027902
    21  N   -0.062245   0.003258  -0.047666   0.007568   0.503399  -0.063806
    22  N    0.000000  -0.000000   0.000347   0.000330   0.000001  -0.001082
    23  O    0.000000   0.000000  -0.001603   0.000056   0.000214   0.001410
    24  O    0.004158  -0.050246   0.000000  -0.045309  -0.000000   0.000973
    25  H    0.385814  -0.023740   0.000011   0.000096   0.000107   0.002932
    26  H   -0.018905   0.393728   0.000000   0.002043   0.000001   0.000301
    27  H    0.000004  -0.000000   0.389966  -0.000064  -0.011614   0.001487
    28  H   -0.000104   0.004078  -0.000002   0.380869   0.000006  -0.033728
    29  H   -0.000090   0.000002  -0.044878   0.000013   0.414952   0.000151
    30  H   -0.000000  -0.000000   0.000000  -0.000000   0.000000  -0.000000
    31  H    0.000000   0.000000  -0.000010   0.000000  -0.000001   0.000000
    32  H   -0.000000  -0.000000  -0.000000   0.000000  -0.000000  -0.000000
    33  H    0.000000  -0.000000   0.000000  -0.000000   0.000000   0.000000
    34  H    0.000000   0.000000   0.000000   0.000001  -0.000000  -0.000000
    35  H   -0.000000   0.000000  -0.000013  -0.000000  -0.000000   0.000003
    36  H   -0.000000   0.000000  -0.000012   0.000002   0.000000  -0.000013
    37  H   -0.000001  -0.000001  -0.000018   0.000487   0.000000   0.000264
    38  H    0.000000  -0.000000   0.000001   0.000002  -0.000000  -0.000001
    39  H    0.000000  -0.000000   0.000002  -0.000000   0.000000  -0.000001
    40  H    0.000000   0.000000   0.000061  -0.000000   0.000001  -0.000000
    41  H    0.000000  -0.000000   0.000000   0.000000  -0.000000  -0.000000
    42  H   -0.000000   0.000000   0.000000   0.000000   0.000000  -0.000000
    43  H    0.000000  -0.000000   0.003511  -0.000015   0.000148   0.000187
    44  H    0.000015   0.000483   0.000000  -0.000015   0.000000   0.000002
    45  H   -0.000264  -0.001348  -0.000000   0.000023   0.000000  -0.000005
    46  H   -0.000268  -0.001276  -0.000000   0.000012   0.000000  -0.000006
    47  H   -0.000004  -0.000015   0.003302  -0.002974  -0.000026   0.000951
    48  H   -0.000004  -0.000003   0.000682   0.000546  -0.000041   0.001279
    49  H   -0.000000  -0.000000   0.005819  -0.000045   0.000177   0.000061
               7          8          9         10         11         12
     1  C    0.005072   0.506804  -0.034333  -0.000000  -0.000000  -0.000000
     2  C   -0.000125  -0.047449   0.476752  -0.000000  -0.000000  -0.000000
     3  C    0.534616  -0.021432  -0.000137  -0.000011   0.000000  -0.000002
     4  C   -0.049438  -0.025690   0.621079   0.000000  -0.000000   0.000018
     5  C   -0.053097  -0.077776   0.000044  -0.000000   0.000000  -0.000000
     6  C    0.494066   0.511295  -0.031081  -0.000000   0.000000  -0.000002
     7  C    5.020387  -0.041597   0.003115   0.000003  -0.000000   0.000005
     8  C   -0.041597   4.573531  -0.021440  -0.000000   0.000000  -0.000000
     9  C    0.003115  -0.021440   4.404327  -0.000000   0.000000   0.000000
    10  C    0.000003  -0.000000  -0.000000   4.944814   0.632057  -0.000049
    11  C   -0.000000   0.000000   0.000000   0.632057   4.926931   0.005098
    12  C    0.000005  -0.000000   0.000000  -0.000049   0.005098   5.063048
    13  C    0.005583   0.000000   0.000000  -0.002445  -0.006689  -0.078489
    14  C    0.000055   0.000002  -0.000024  -0.000019  -0.000048   0.296895
    15  C   -0.000175   0.000000  -0.000000  -0.006905  -0.050315  -0.000683
    16  C    0.000006  -0.000000   0.000000  -0.052542   0.351774  -0.076366
    17  C   -0.000090   0.000000  -0.000000  -0.001987  -0.053170   0.339775
    18  C   -0.063698  -0.000082  -0.000018  -0.001206   0.000435  -0.003813
    19  C    0.000002  -0.000010  -0.039779  -0.000000   0.000000   0.000000
    20  C    0.312406   0.002530   0.000354   0.000032   0.000001   0.000102
    21  N   -0.039263   0.411293  -0.000520  -0.000000   0.000000   0.000000
    22  N    0.001219  -0.000012   0.000012   0.000124   0.002958  -0.033557
    23  O   -0.058402  -0.000034  -0.000004   0.000000   0.000000  -0.000023
    24  O   -0.000078   0.000149   0.246568   0.000000  -0.000000  -0.000000
    25  H   -0.000093  -0.025982   0.001250   0.000000  -0.000000   0.000000
    26  H    0.000003   0.001314  -0.027452  -0.000000   0.000000  -0.000000
    27  H   -0.036496   0.000153   0.000000   0.000003  -0.000001  -0.000000
    28  H    0.000263   0.001001  -0.017792   0.000000   0.000000   0.000006
    29  H    0.002085   0.002676  -0.000000  -0.000000   0.000000   0.000000
    30  H   -0.000000   0.000000   0.000000   0.409831  -0.035280   0.000002
    31  H    0.000001  -0.000000  -0.000000   0.410340  -0.047387  -0.000006
    32  H    0.000000  -0.000000   0.000000  -0.035915   0.411310  -0.000088
    33  H   -0.000000   0.000000  -0.000000  -0.000001  -0.000112   0.418851
    34  H    0.000001   0.000000  -0.000000  -0.000000  -0.000080   0.417653
    35  H   -0.000072  -0.000000  -0.000000   0.003172   0.005684   0.004661
    36  H    0.000487  -0.000000   0.000000   0.000034   0.000141  -0.004331
    37  H   -0.000267   0.000001   0.000014   0.000000   0.000001  -0.033416
    38  H   -0.000016   0.000000  -0.000001   0.000000   0.000006  -0.033192
    39  H    0.000003   0.000000   0.000000   0.000161   0.002113   0.000236
    40  H    0.000046  -0.000000   0.000000   0.000500  -0.001418  -0.000343
    41  H   -0.000000   0.000000   0.000000   0.001988  -0.037320  -0.004942
    42  H    0.000001  -0.000000   0.000000   0.000300  -0.002746  -0.031666
    43  H   -0.006816  -0.000009   0.000000  -0.000395   0.000512  -0.000156
    44  H   -0.000000  -0.000000   0.001649   0.000000  -0.000000   0.000000
    45  H   -0.000000   0.000000  -0.001242   0.000000  -0.000000  -0.000000
    46  H   -0.000000   0.000001  -0.001269  -0.000000   0.000000   0.000000
    47  H   -0.055778   0.000167   0.000221  -0.000001  -0.000000  -0.000443
    48  H    0.006084  -0.000000   0.000002   0.000019  -0.000137   0.002546
    49  H   -0.007982   0.000000   0.000000  -0.000002  -0.000000   0.000001
              13         14         15         16         17         18
     1  C   -0.000000  -0.000000   0.000000   0.000000   0.000000   0.000002
     2  C    0.000000   0.000000  -0.000000   0.000000   0.000000   0.000001
     3  C   -0.000040   0.000006  -0.000108   0.000001  -0.000005  -0.011702
     4  C    0.000013  -0.000633  -0.000003   0.000000  -0.000001  -0.000349
     5  C   -0.000001   0.000000  -0.000001   0.000000   0.000000   0.000029
     6  C   -0.000110   0.000144   0.000018  -0.000000   0.000000   0.002555
     7  C    0.005583   0.000055  -0.000175   0.000006  -0.000090  -0.063698
     8  C    0.000000   0.000002   0.000000  -0.000000   0.000000  -0.000082
     9  C    0.000000  -0.000024  -0.000000   0.000000  -0.000000  -0.000018
    10  C   -0.002445  -0.000019  -0.006905  -0.052542  -0.001987  -0.001206
    11  C   -0.006689  -0.000048  -0.050315   0.351774  -0.053170   0.000435
    12  C   -0.078489   0.296895  -0.000683  -0.076366   0.339775  -0.003813
    13  C    5.061345  -0.002034   0.000554  -0.067049   0.329137   0.295803
    14  C   -0.002034   5.001925  -0.043092  -0.004311  -0.043844  -0.041689
    15  C    0.000554  -0.043092   5.002420   0.306935  -0.049001  -0.044698
    16  C   -0.067049  -0.004311   0.306935   5.134514   0.329916  -0.005743
    17  C    0.329137  -0.043844  -0.049001   0.329916   5.134850  -0.040840
    18  C    0.295803  -0.041689  -0.044698  -0.005743  -0.040840   5.200529
    19  C    0.000000  -0.000000  -0.000000  -0.000000  -0.000000  -0.000000
    20  C   -0.040704  -0.001468   0.002421  -0.000080   0.002041   0.346773
    21  N   -0.000000   0.000000   0.000000   0.000000   0.000000  -0.000010
[...]
    30  H   -0.000000   0.000000   0.000000  -0.000100  -0.000090  -0.000003
    31  H    0.000000  -0.000000   0.000015   0.000029  -0.000009   0.000011
    32  H   -0.000000  -0.000000  -0.000085   0.000202  -0.003528   0.000707
    33  H    0.002006  -0.005499  -0.000043   0.000005   0.002411  -0.002624
    34  H   -0.005759   0.002137   0.000013   0.000006   0.000005  -0.002893
    35  H    0.000009   0.000004   0.000001  -0.000094  -0.000033  -0.002716
    36  H   -0.000047   0.000004   0.000004   0.000008  -0.000060  -0.002354
    37  H    0.483533  -0.019239  -0.000018  -0.000081   0.000002  -0.000071
    38  H   -0.019239   0.458995   0.001841   0.000012  -0.000027  -0.000079
    39  H   -0.000018   0.001841   0.456962  -0.016982  -0.005589  -0.000080
    40  H   -0.000081   0.000012  -0.016982   0.464170   0.001667  -0.000060
    41  H    0.000002  -0.000027  -0.005589   0.001667   0.502275  -0.002061
    42  H   -0.000071  -0.000079  -0.000080  -0.000060  -0.002061   0.495079
    43  H   -0.000094  -0.000051   0.000076   0.001401   0.000017  -0.000073
    44  H    0.000000  -0.000000   0.000000   0.000000   0.000000   0.000000
    45  H   -0.000000   0.000000   0.000000   0.000000  -0.000000   0.000000
    46  H    0.000000   0.000000  -0.000000  -0.000000  -0.000000  -0.000000
    47  H   -0.002608   0.000131   0.000006   0.000003   0.000000  -0.000004
    48  H   -0.002122  -0.002461  -0.002352  -0.002374  -0.000083   0.000026
    49  H   -0.000003   0.000000  -0.000000   0.000000  -0.000000  -0.000000
              43         44         45         46         47         48
     1  C    0.000000   0.000015  -0.000264  -0.000268  -0.000004  -0.000004
     2  C   -0.000000   0.000483  -0.001348  -0.001276  -0.000015  -0.000003
     3  C    0.003511   0.000000  -0.000000  -0.000000   0.003302   0.000682
     4  C   -0.000015  -0.000015   0.000023   0.000012  -0.002974   0.000546
     5  C    0.000148   0.000000   0.000000   0.000000  -0.000026  -0.000041
     6  C    0.000187   0.000002  -0.000005  -0.000006   0.000951   0.001279
     7  C   -0.006816  -0.000000  -0.000000  -0.000000  -0.055778   0.006084
     8  C   -0.000009  -0.000000   0.000000   0.000001   0.000167  -0.000000
     9  C    0.000000   0.001649  -0.001242  -0.001269   0.000221   0.000002
    10  C   -0.000395   0.000000   0.000000  -0.000000  -0.000001   0.000019
    11  C    0.000512  -0.000000  -0.000000   0.000000  -0.000000  -0.000137
    12  C   -0.000156   0.000000  -0.000000   0.000000  -0.000443   0.002546
    13  C   -0.033925  -0.000000   0.000000  -0.000000  -0.002150   0.002300
    14  C    0.002643  -0.000000   0.000000  -0.000000  -0.000188  -0.021613
    15  C   -0.002546  -0.000000   0.000000   0.000000  -0.000161  -0.021048
    16  C   -0.000417  -0.000000  -0.000000   0.000000  -0.000004   0.002705
    17  C    0.001436  -0.000000   0.000000  -0.000000   0.000086   0.000392
    18  C    0.421821   0.000000   0.000000  -0.000000  -0.048715  -0.022959
    19  C    0.000000   0.414106   0.401645   0.401615   0.000000   0.000000
    20  C   -0.028612  -0.000000   0.000000   0.000000   0.441004  -0.004159
    21  N   -0.000002  -0.000000   0.000000   0.000000  -0.000003  -0.000019
    22  N   -0.036159   0.000000   0.000000  -0.000000  -0.000905   0.352408
    23  O    0.000787   0.000000   0.000000  -0.000000  -0.026609   0.000040
    24  O   -0.000000  -0.031032  -0.035734  -0.036089  -0.000023  -0.000000
    25  H   -0.000000  -0.000000   0.000001   0.000000  -0.000000   0.000000
    26  H    0.000000   0.000088  -0.001079  -0.000910  -0.000000  -0.000000
    27  H   -0.000178  -0.000000  -0.000000  -0.000000   0.000015   0.000012
    28  H   -0.000009  -0.000022   0.000022   0.000021  -0.003217   0.000036
    29  H    0.000007  -0.000000   0.000000   0.000000   0.000001  -0.000000
    30  H   -0.000008   0.000000   0.000000  -0.000000   0.000000  -0.000000
    31  H   -0.000012  -0.000000  -0.000000   0.000000  -0.000001   0.000021
    32  H    0.000005  -0.000000  -0.000000   0.000000  -0.000000   0.000001
    33  H    0.000005   0.000000   0.000000  -0.000000   0.000004  -0.000089
    34  H    0.000005  -0.000000   0.000000   0.000000   0.000178  -0.000084
    35  H   -0.005718  -0.000000  -0.000000   0.000000  -0.000060  -0.000073
    36  H    0.002286  -0.000000   0.000000  -0.000000   0.000181  -0.000083
    37  H   -0.000094   0.000000  -0.000000   0.000000  -0.002608  -0.002122
    38  H   -0.000051  -0.000000   0.000000   0.000000   0.000131  -0.002461
    39  H    0.000076   0.000000   0.000000  -0.000000   0.000006  -0.002352
    40  H    0.001401   0.000000   0.000000  -0.000000   0.000003  -0.002374
    41  H    0.000017   0.000000  -0.000000  -0.000000   0.000000  -0.000083
    42  H   -0.000073   0.000000   0.000000  -0.000000  -0.000004   0.000026
    43  H    0.477838   0.000000  -0.000000   0.000000   0.003212  -0.001348
    44  H    0.000000   0.509026  -0.025904  -0.027030   0.000000   0.000000
    45  H   -0.000000  -0.025904   0.572632  -0.044933  -0.000000  -0.000000
    46  H    0.000000  -0.027030  -0.044933   0.575267  -0.000000  -0.000000
    47  H    0.003212   0.000000  -0.000000  -0.000000   0.524906   0.000012
    48  H   -0.001348   0.000000  -0.000000  -0.000000   0.000012   0.311061
    49  H    0.000910   0.000000  -0.000000   0.000000   0.004416  -0.000004
              49
     1  C   -0.000000
     2  C   -0.000000
     3  C    0.005819
     4  C   -0.000045
     5  C    0.000177
     6  C    0.000061
     7  C   -0.007982
     8  C    0.000000
     9  C    0.000000
    10  C   -0.000002
    11  C   -0.000000
    12  C    0.000001
    13  C   -0.000818
    14  C    0.000000
    15  C   -0.000004
    16  C    0.000002
    17  C   -0.000019
    18  C   -0.003007
    19  C    0.000000
    20  C   -0.023653
    21  N   -0.000002
    22  N    0.000022
    23  O    0.312166
    24  O    0.000000
    25  H   -0.000000
    26  H    0.000000
    27  H    0.000970
    28  H   -0.000019
    29  H    0.000002
    30  H    0.000000
    31  H   -0.000002
    32  H   -0.000000
    33  H   -0.000000
    34  H    0.000001
    35  H    0.000166
    36  H   -0.000233
    37  H   -0.000003
    38  H    0.000000
    39  H   -0.000000
    40  H    0.000000
    41  H   -0.000000
    42  H   -0.000000
    43  H    0.000910
    44  H    0.000000
    45  H   -0.000000
    46  H    0.000000
    47  H    0.004416
    48  H   -0.000004
    49  H    0.338077
 Mulliken charges:
               1
     1  C   -0.134455
     2  C   -0.215468
     3  C   -0.230701
     4  C   -0.216006
     5  C    0.118087
     6  C   -0.031303
     7  C    0.027973
     8  C    0.250596
     9  C    0.419705
    10  C   -0.301900
    11  C   -0.104318
    12  C   -0.247328
    13  C   -0.226007
    14  C   -0.060528
    15  C   -0.051855
    16  C   -0.178013
    17  C   -0.158885
    18  C    0.011554
    19  C   -0.049078
    20  C    0.213822
    21  N   -0.625361
    22  N   -0.665273
    23  O   -0.663731
    24  O   -0.693091
    25  H    0.191478
    26  H    0.198497
    27  H    0.197339
    28  H    0.179602
    29  H    0.181504
    30  H    0.153751
    31  H    0.131194
    32  H    0.160707
    33  H    0.166338
    34  H    0.167499
    35  H    0.169100
    36  H    0.176306
    37  H    0.188715
    38  H    0.208042
    39  H    0.208355
    40  H    0.202554
    41  H    0.184015
    42  H    0.178162
    43  H    0.199736
    44  H    0.158636
    45  H    0.136186
    46  H    0.134865
    47  H    0.165092
    48  H    0.400886
    49  H    0.373002
 Sum of Mulliken charges =   1.00000
 Mulliken charges with hydrogens summed into heavy atoms:
               1
     1  C    0.057023
     2  C   -0.016971
     3  C   -0.033362
     4  C   -0.036403
     5  C    0.299592
     6  C   -0.031303
     7  C    0.027973
     8  C    0.250596
     9  C    0.419705
    10  C   -0.016955
    11  C    0.056389
    12  C    0.086510
    13  C    0.119399
    14  C    0.336229
    15  C    0.359055
    16  C    0.006001
    17  C    0.019277
    18  C    0.211290
    19  C    0.380610
    20  C    0.378914
    21  N   -0.625361
    22  N   -0.264387
    23  O   -0.290729
    24  O   -0.693091
 Electronic spatial extent (au):  <R**2>=           9008.6184
 Charge=              1.0000 electrons
 Dipole moment (field-independent basis, Debye):
    X=             -8.4977    Y=             -4.3650    Z=             -4.1417  Tot=             10.4123
 Quadrupole moment (field-independent basis, Debye-Ang):
   XX=            -87.6435   YY=           -121.7837   ZZ=           -141.2542
   XY=            -10.7918   XZ=             -0.4236   YZ=              8.1080
 Traceless Quadrupole moment (field-independent basis, Debye-Ang):
   XX=             29.2503   YY=             -4.8899   ZZ=            -24.3604
   XY=            -10.7918   XZ=             -0.4236   YZ=              8.1080
 Octapole moment (field-independent basis, Debye-Ang**2):
  XXX=             51.2339  YYY=            -31.4068  ZZZ=            -19.1462  XYY=            -43.9075
  XXY=           -108.8739  XXZ=            -41.0018  XZZ=            -21.7164  YZZ=            -16.8780
  YYZ=             10.9591  XYZ=              1.0766
 Hexadecapole moment (field-independent basis, Debye-Ang**3):
 XXXX=          -6860.3562 YYYY=          -2420.7306 ZZZZ=           -937.1760 XXXY=           -412.1643
 XXXZ=           -135.2787 YYYX=           -227.1953 YYYZ=             70.3237 ZZZX=              3.4366
 ZZZY=             41.3786 XXYY=          -1664.4398 XXZZ=          -1570.5430 YYZZ=           -565.4563
 XXYZ=             65.8016 YYXZ=              0.3432 ZZXY=             -5.3333
 N-N= 2.112734549493D+03 E-N=-6.607227844611D+03  KE= 1.028156956509D+03
 Merz-Kollman atomic radii used.

 **********************************************************************

            Electrostatic Properties Using The SCF Density

 **********************************************************************

       Atomic Center    1 is at   4.128207  1.184277 -0.829183
       Atomic Center    2 is at   4.499873 -0.124038 -0.626004
       Atomic Center    3 is at   0.330021  2.539300  0.373638
       Atomic Center    4 is at   2.354236 -0.598200  0.391862
       Atomic Center    5 is at   1.301706  3.373862 -0.256627
       Atomic Center    6 is at   1.947957  0.746982  0.192916
       Atomic Center    7 is at   0.675615  1.223239  0.589889
       Atomic Center    8 is at   2.848136  1.665983 -0.430800
       Atomic Center    9 is at   3.596486 -1.036322 -0.003057
       Atomic Center   10 is at  -4.878075  1.572452 -0.794870
       Atomic Center   11 is at  -5.077622  0.254563 -0.841188
       Atomic Center   12 is at  -2.676764 -2.554787  0.334513
       Atomic Center   13 is at  -2.892668 -0.276534  1.307337
       Atomic Center   14 is at  -1.419675 -2.101465 -0.433825
       Atomic Center   15 is at  -2.773631 -0.424152 -1.673633
       Atomic Center   16 is at  -4.042202 -0.861328 -0.895753
       Atomic Center   17 is at  -3.649850 -1.375214  0.516078
       Atomic Center   18 is at  -1.704582  0.256431  0.478904
       Atomic Center   19 is at   5.246026 -2.790272 -0.208451
       Atomic Center   20 is at  -0.364759  0.315800  1.268669
       Atomic Center   21 is at   2.512636  2.961714 -0.645501
       Atomic Center   22 is at  -1.563208 -0.628284 -0.766212
       Atomic Center   23 is at  -0.620076  0.823460  2.569742
       Atomic Center   24 is at   3.960470 -2.324847  0.197429
       Atomic Center   25 is at   4.833823  1.856614 -1.305497
       Atomic Center   26 is at   5.480150 -0.454425 -0.941032
       Atomic Center   27 is at  -0.638011  2.935366  0.666750
       Atomic Center   28 is at   1.690230 -1.312778  0.861933
       Atomic Center   29 is at   1.088752  4.421763 -0.455226
       Atomic Center   30 is at  -5.718072  2.257808 -0.758553
       Atomic Center   31 is at  -3.896056  2.039944 -0.789929
       Atomic Center   32 is at  -6.112919 -0.082614 -0.840709
       Atomic Center   33 is at  -3.165457 -3.371703 -0.205095
       Atomic Center   34 is at  -2.386489 -2.961587  1.307052
       Atomic Center   35 is at  -3.562901  0.549608  1.553235
       Atomic Center   36 is at  -2.553531 -0.680622  2.264172
       Atomic Center   37 is at  -0.507054 -2.232091  0.145001
       Atomic Center   38 is at  -1.304616 -2.637396 -1.377673
       Atomic Center   39 is at  -2.611887 -1.039397 -2.561288
       Atomic Center   40 is at  -2.772686  0.621716 -1.977048
       Atomic Center   41 is at  -4.511051 -1.683162 -1.446737
       Atomic Center   42 is at  -4.529268 -1.702220  1.074020
       Atomic Center   43 is at  -1.925210  1.258982  0.109039
       Atomic Center   44 is at   5.284481 -3.843646  0.062813
       Atomic Center   45 is at   6.047772 -2.229438  0.284861
       Atomic Center   46 is at   5.384294 -2.674963 -1.290425
       Atomic Center   47 is at   0.016639 -0.695217  1.386684
       Atomic Center   48 is at  -0.729554 -0.332247 -1.284609
       Atomic Center   49 is at  -0.961120  1.725336  2.500398
    1716 points will be used for fitting atomic charges
 Fitting point charges to electrostatic potential
 Charges from ESP fit, RMS=   0.00139 RRMS=   0.01400:
 ESP charges:
               1
     1  C   -0.393426
     2  C   -0.278516
     3  C   -0.601668
     4  C   -0.602768
     5  C    0.472519
     6  C   -0.075932
     7  C    0.139506
     8  C    0.671935
     9  C    0.564120
    10  C   -0.390209
    11  C   -0.214491
    12  C   -0.156230
    13  C   -0.172234
    14  C    0.048642
    15  C   -0.079641
    16  C    0.114332
    17  C   -0.024377
    18  C   -0.143253
    19  C   -0.023232
    20  C    0.485193
    21  N   -0.791636
    22  N   -0.115267
    23  O   -0.775552
    24  O   -0.419180
    25  H    0.220861
    26  H    0.212085
    27  H    0.238687
    28  H    0.209106
    29  H    0.072460
    30  H    0.184074
    31  H    0.177720
    32  H    0.155610
    33  H    0.072959
    34  H    0.097137
    35  H    0.095119
    36  H    0.107364
    37  H    0.052509
    38  H    0.111417
    39  H    0.132882
    40  H    0.117533
    41  H    0.075647
    42  H    0.095626
    43  H    0.168640
    44  H    0.113075
    45  H    0.076892
    46  H    0.073854
    47  H    0.129801
    48  H    0.288075
    49  H    0.482231
 Sum of ESP charges =   1.00000
 ESP charges with hydrogens summed into heavy atoms:
               1
     1  C   -0.172565
     2  C   -0.066430
     3  C   -0.362981
     4  C   -0.393662
     5  C    0.544979
     6  C   -0.075932
     7  C    0.139506
     8  C    0.671935
     9  C    0.564120
    10  C   -0.028414
    11  C   -0.058881
    12  C    0.013866
    13  C    0.030249
    14  C    0.212567
    15  C    0.170775
    16  C    0.189979
    17  C    0.071249
    18  C    0.025387
    19  C    0.240589
    20  C    0.614994
    21  N   -0.791636
    22  N    0.172808
    23  O   -0.293322
    24  O   -0.419180
 Charge=   1.00000 Dipole=    -8.4707    -4.3510    -4.1624 Tot=    10.3927
 Writing Antechamber ESP formatted file "G3.esp"
 -----------------------------------------------------------------

              Electrostatic Properties (Atomic Units)

 -----------------------------------------------------------------
    Center     Electric         -------- Electric Field --------
               Potential          X             Y             Z
 -----------------------------------------------------------------
    1 Atom    -14.635989
    2 Atom    -14.629863
    3 Atom    -14.585366
    4 Atom    -14.619582
    5 Atom    -14.578148
    6 Atom    -14.594466
    7 Atom    -14.569976
    8 Atom    -14.596080
    9 Atom    -14.557426
   10 Atom    -14.609500
   11 Atom    -14.594393
   12 Atom    -14.570153
   13 Atom    -14.578387
   14 Atom    -14.500494
   15 Atom    -14.499519
   16 Atom    -14.555034
   17 Atom    -14.564095
   18 Atom    -14.497172
   19 Atom    -14.583760
   20 Atom    -14.502674
   21 Atom    -18.263642
   22 Atom    -18.036918
   23 Atom    -22.178288
   24 Atom    -22.196361
   25 Atom     -1.028305
   26 Atom     -1.004931
   27 Atom     -0.940667
   28 Atom     -0.980664
   29 Atom     -1.008305
   30 Atom     -1.001278
   31 Atom     -0.969534
   32 Atom     -0.996477
   33 Atom     -0.975834
   34 Atom     -0.978909
   35 Atom     -0.983874
   36 Atom     -0.988707
   37 Atom     -0.929931
   38 Atom     -0.923347
   39 Atom     -0.921991
   40 Atom     -0.925431
   41 Atom     -0.971836
   42 Atom     -0.982166
   43 Atom     -0.922904
   44 Atom     -1.027449
   45 Atom     -1.028258
   46 Atom     -1.024123
   47 Atom     -0.957617
   48 Atom     -0.791370
   49 Atom     -0.861321
 -----------------------------------------------------------------

 Test job not archived.
 1\1\GINC-CPU199\SP\RHF\6-31G(d,p)\C20H25N2O2(1+)\FEBRERMA\05-Feb-2024\
 0\\# HF/6-31G** SCRF=(Solvent=Water) POP=MK iop(6/50=1) geom=allcheck 
 guess=read\\G3\\1,1\C,0,11.9820225857,40.4675285774,33.1088326881\C,0,
 12.0374970618,41.7161508787,32.5352734279\C,0,11.2400354051,37.0623710
 116,30.7501368728\C,0,11.600324145,40.7577076507,30.3546989994\C,0,11.
 4469318232,37.0138370982,32.1617810717\C,0,11.5384161022,39.458967718,
 30.9235586177\C,0,11.2902999064,38.3008713991,30.1486318334\C,0,11.732
 1909134,39.300446944,32.3311203024\C,0,11.8429624317,41.8674926314,31.
 1296818953\C,0,7.2726496853,35.0774089601,27.6285591723\C,0,6.81738821
 52,36.046049016,26.8327775832\C,0,8.3951499877,39.5294208584,26.188086
 566\C,0,9.6050610711,37.4186599668,26.7021310258\C,0,8.5532639653,39.9
 71057987,27.656444571\C,0,7.2179246705,38.0087028102,28.397881912\C,0,
 7.0651946922,37.5461477825,26.9253982291\C,0,8.2987148471,37.995319481
 1,26.0959640888\C,0,9.6962482431,37.7646315879,28.203426855\C,0,12.147
 3361728,44.2539220623,31.3573286907\C,0,11.0687158128,38.3636203723,28
 .6276020739\N,0,11.6838009023,38.0839978178,32.9273457832\N,0,8.554248
 4302,38.7338448671,28.5343097777\O,0,12.1060772096,37.6301945594,27.99
 38330681\O,0,11.896801262,43.0960165443,30.5632863311\H,0,12.132797921
 8,40.3807375908,34.1795987212\H,0,12.2298340812,42.5798460594,33.15686
 59222\H,0,11.0519859976,36.1549694584,30.1834558364\H,0,11.4568389093,
 40.9032058151,29.2913389966\H,0,11.4188617091,36.0662823759,32.6949207
 936\H,0,7.0133166917,34.0408494595,27.4416976093\H,0,7.9133886576,35.2
 482207564,28.49065621\H,0,6.1832030623,35.7382515764,26.0029584788\H,0
 ,7.5031585492,39.9934301347,25.7563512325\H,0,9.2431328723,39.89315501
 42,25.6014007907\H,0,9.6398110656,36.3345308574,26.5770452265\H,0,10.4
 671511494,37.8098043736,26.156567891\H,0,9.4809191368,40.5130356549,27
 .8316495794\H,0,7.7235772261,40.6003439421,27.9834451576\H,0,6.4401127
 101,38.72135096,28.6803018363\H,0,7.2191014388,37.1973507789,29.124248
 5376\H,0,6.1734628994,38.0268730101,26.5100302671\H,0,8.2023406072,37.
 6916583933,25.0518807461\H,0,9.5145566484,36.872872463,28.8053730125\H
 ,0,12.1394545547,45.0979133826,30.6701050474\H,0,13.1092676873,44.1811
 848154,31.8770263056\H,0,11.371688371,44.3838642432,32.1218990206\H,0,
 11.1304777085,39.3867880493,28.2658559588\H,0,8.6508375553,39.03166123
 28,29.5106961256\H,0,12.0796672475,36.7121650205,28.2955362599\\Versio
 n=ES64L-G16RevA.03\State=1-A\HF=-1030.4082264\RMSD=6.652e-09\Dipole=-3
 .5181053,-0.2611302,-2.0823748\Quadrupole=-5.8473442,12.881535,-7.0341
 908,7.3902401,13.4924597,12.1008554\PG=C01 [X(C20H25N2O2)]\\@


 ... THIS SEEMS PLAINLY ABSURD; BUT WHOEVER WISHES TO BECOME A 
 PHILOSOPHER MUST LEARN NOT TO BE FRIGHTENED BY ABSURDITIES.

                          -- BERTRAND RUSSELL
 Job cpu time:       0 days  0 hours 13 minutes 41.1 seconds.
 Elapsed time:       0 days  0 hours  1 minutes 44.0 seconds.
 File lengths (MBytes):  RWF=    292 Int=      0 D2E=      0 Chk=     21 Scr=      1
 Normal termination of Gaussian 16 at Mon Feb  5 16:02:52 2024.
