 Entering Gaussian System, Link 0=g16
 Initial command:
 /opt/ebsofts/Gaussian/g16/l1.exe "/scratch/Gau-1695057.inp" -scrdir="/scratch/"
 Entering Link 1 = /opt/ebsofts/Gaussian/g16/l1.exe PID=   1695066.
  
 Copyright (c) 1988,1990,1992,1993,1995,1998,2003,2009,2016,
            Gaussian, Inc.  All Rights Reserved.
  
 This is part of the Gaussian(R) 16 program.  It is based on
 the Gaussian(R) 09 system (copyright 2009, Gaussian, Inc.),
 the Gaussian(R) 03 system (copyright 2003, Gaussian, Inc.),
 the Gaussian(R) 98 system (copyright 1998, Gaussian, Inc.),
 the Gaussian(R) 94 system (copyright 1995, Gaussian, Inc.),
 the Gaussian 92(TM) system (copyright 1992, Gaussian, Inc.),
 the Gaussian 90(TM) system (copyright 1990, Gaussian, Inc.),
 the Gaussian 88(TM) system (copyright 1988, Gaussian, Inc.),
 the Gaussian 86(TM) system (copyright 1986, Carnegie Mellon
 University), and the Gaussian 82(TM) system (copyright 1983,
 Carnegie Mellon University). Gaussian is a federally registered
 trademark of Gaussian, Inc.
  
 This software contains proprietary and confidential information,
 including trade secrets, belonging to Gaussian, Inc.
  
 This software is provided under written license and may be
 used, copied, transmitted, or stored only in accord with that
 written license.
  
 The following legend is applicable only to US Government
 contracts under FAR:
  
                    RESTRICTED RIGHTS LEGEND
  
 Use, reproduction and disclosure by the US Government is
 subject to restrictions as set forth in subparagraphs (a)
 and (c) of the Commercial Computer Software - Restricted
 Rights clause in FAR 52.227-19.
  
 Gaussian, Inc.
 340 Quinnipiac St., Bldg. 40, Wallingford CT 06492
  
  
 ---------------------------------------------------------------
 Warning -- This program may not be used in any manner that
 competes with the business of Gaussian, Inc. or will provide
 assistance to any competitor of Gaussian, Inc.  The licensee
 of this program is prohibited from giving any competitor of
 Gaussian, Inc. access to this program.  By using this program,
 the user acknowledges that Gaussian, Inc. is engaged in the
 business of creating and licensing software in the field of
 computational chemistry and represents and warrants to the
 licensee that it is not a competitor of Gaussian, Inc. and that
 it will not use this program in any manner prohibited above.
 ---------------------------------------------------------------
  

 Cite this work as:
 Gaussian 16, Revision A.03,
 M. J. Frisch, G. W. Trucks, H. B. Schlegel, G. E. Scuseria, 
 M. A. Robb, J. R. Cheeseman, G. Scalmani, V. Barone, 
 G. A. Petersson, H. Nakatsuji, X. Li, M. Caricato, A. V. Marenich, 
 J. Bloino, B. G. Janesko, R. Gomperts, B. Mennucci, H. P. Hratchian, 
 J. V. Ortiz, A. F. Izmaylov, J. L. Sonnenberg, D. Williams-Young, 
 F. Ding, F. Lipparini, F. Egidi, J. Goings, B. Peng, A. Petrone, 
 T. Henderson, D. Ranasinghe, V. G. Zakrzewski, J. Gao, N. Rega, 
 G. Zheng, W. Liang, M. Hada, M. Ehara, K. Toyota, R. Fukuda, 
 J. Hasegawa, M. Ishida, T. Nakajima, Y. Honda, O. Kitao, H. Nakai, 
 T. Vreven, K. Throssell, J. A. Montgomery, Jr., J. E. Peralta, 
 F. Ogliaro, M. J. Bearpark, J. J. Heyd, E. N. Brothers, K. N. Kudin, 
 V. N. Staroverov, T. A. Keith, R. Kobayashi, J. Normand, 
 K. Raghavachari, A. P. Rendell, J. C. Burant, S. S. Iyengar, 
 J. Tomasi, M. Cossi, J. M. Millam, M. Klene, C. Adamo, R. Cammi, 
 J. W. Ochterski, R. L. Martin, K. Morokuma, O. Farkas, 
 J. B. Foresman, and D. J. Fox, Gaussian, Inc., Wallingford CT, 2016.
 
 ******************************************
 Gaussian 16:  ES64L-G16RevA.03 25-Dec-2016
                 5-Feb-2024 
 ******************************************
 %Chk=G1.chk
 %nprocshared=8
 Will use up to    8 processors via shared memory.
 %mem=1GB
 --------------------------------
 # B3LYP/6-31G** opt=Modredundant
 --------------------------------
 1/18=120,19=15,26=3,38=1/1,3;
 2/9=110,12=2,17=6,18=5,40=1/2;
 3/5=1,6=6,7=101,11=2,25=1,30=1,71=1,74=-5/1,2,3;
 4//1;
 5/5=2,38=5/2;
 6/7=2,8=2,9=2,10=2,28=1/1;
 7//1,2,3,16;
 1/18=20,19=15,26=3/3(2);
 2/9=110/2;
 99//99;
 2/9=110/2;
 3/5=1,6=6,7=101,11=2,25=1,30=1,71=1,74=-5/1,2,3;
 4/5=5,16=3,69=1/1;
 5/5=2,38=5/2;
 7//1,2,3,16;
 1/18=20,19=15,26=3/3(-5);
 2/9=110/2;
 6/7=2,8=2,9=2,10=2,19=2,28=1/1;
 99/9=1/99;
 --
 G1
 --
 Symbolic Z-matrix:
 Charge =  1 Multiplicity = 1
 C                     2.7486   -1.6866   -6.1812 
 C                     2.0232   -0.5231   -5.9252 
 C                     2.8321   -2.6843   -5.2099 
 C                     1.3815   -0.3571   -4.6978 
 C                     2.1905   -2.5184   -3.9826 
 C                     1.4651   -1.3548   -3.7265 
 C                     2.8639   -1.3418   -0.9883 
 C                    -0.3533    0.5468   -0.2639 
 C                     0.7743   -1.1765   -2.404 
 C                     1.645    -0.4981   -1.3382 
 N                     0.849    -0.3075   -0.091 
 H                     3.247    -1.8163   -7.1374 
 H                     1.9571    0.2534   -6.6817 
 H                     3.3959   -3.5908   -5.4094 
 H                     0.8188    0.5529   -4.507 
 H                     2.2612   -3.3009   -3.2318 
 H                     2.5673   -2.3474   -0.6707 
 H                     3.5409   -1.444    -1.8435 
 H                     3.425    -0.8854   -0.1661 
 H                    -0.9783    0.0916   -1.0343 
 H                    -0.8761    0.5857    0.6936 
 H                    -0.0166    1.5398   -0.5679 
 H                     0.4712   -2.1681   -2.0403 
 H                    -0.1607   -0.6159   -2.5387 
 H                     1.9611    0.5024   -1.653 
 H                     1.4558    0.1005    0.6312 
 H                     0.564    -1.2283    0.2654 
 
 The following ModRedundant input section has been read:
 D    *       *       *       *    F                                           
 

 GradGradGradGradGradGradGradGradGradGradGradGradGradGradGradGradGradGrad
 Berny optimization.
 Initialization pass.
                           ----------------------------
                           !    Initial Parameters    !
                           ! (Angstroms and Degrees)  !
 --------------------------                            --------------------------
 ! Name  Definition              Value          Derivative Info.                !
 --------------------------------------------------------------------------------
 ! R1    R(1,2)                  1.3948         estimate D2E/DX2                !
 ! R2    R(1,3)                  1.3949         estimate D2E/DX2                !
 ! R3    R(1,12)                 1.0861         estimate D2E/DX2                !
 ! R4    R(2,4)                  1.3949         estimate D2E/DX2                !
 ! R5    R(2,13)                 1.0861         estimate D2E/DX2                !
 ! R6    R(3,5)                  1.3948         estimate D2E/DX2                !
 ! R7    R(3,14)                 1.086          estimate D2E/DX2                !
 ! R8    R(4,6)                  1.3949         estimate D2E/DX2                !
 ! R9    R(4,15)                 1.0868         estimate D2E/DX2                !
 ! R10   R(5,6)                  1.3949         estimate D2E/DX2                !
 ! R11   R(5,16)                 1.0867         estimate D2E/DX2                !
 ! R12   R(6,9)                  1.5027         estimate D2E/DX2                !
 ! R13   R(7,10)                 1.5231         estimate D2E/DX2                !
 ! R14   R(7,17)                 1.0955         estimate D2E/DX2                !
 ! R15   R(7,18)                 1.0955         estimate D2E/DX2                !
 ! R16   R(7,19)                 1.0951         estimate D2E/DX2                !
 ! R17   R(8,11)                 1.485          estimate D2E/DX2                !
 ! R18   R(8,20)                 1.0915         estimate D2E/DX2                !
 ! R19   R(8,21)                 1.0916         estimate D2E/DX2                !
 ! R20   R(8,22)                 1.0917         estimate D2E/DX2                !
 ! R21   R(9,10)                 1.5344         estimate D2E/DX2                !
 ! R22   R(9,23)                 1.0988         estimate D2E/DX2                !
 ! R23   R(9,24)                 1.0985         estimate D2E/DX2                !
 ! R24   R(10,11)                1.4918         estimate D2E/DX2                !
 ! R25   R(10,25)                1.0955         estimate D2E/DX2                !
 ! R26   R(11,26)                1.0277         estimate D2E/DX2                !
 ! R27   R(11,27)                1.0277         estimate D2E/DX2                !
 ! A1    A(2,1,3)              119.9974         estimate D2E/DX2                !
 ! A2    A(2,1,12)             119.9916         estimate D2E/DX2                !
 ! A3    A(3,1,12)             120.0109         estimate D2E/DX2                !
 ! A4    A(1,2,4)              120.0005         estimate D2E/DX2                !
 ! A5    A(1,2,13)             120.0129         estimate D2E/DX2                !
 ! A6    A(4,2,13)             119.9866         estimate D2E/DX2                !
 ! A7    A(1,3,5)              120.0059         estimate D2E/DX2                !
 ! A8    A(1,3,14)             120.0118         estimate D2E/DX2                !
 ! A9    A(5,3,14)             119.9822         estimate D2E/DX2                !
 ! A10   A(2,4,6)              119.9998         estimate D2E/DX2                !
 ! A11   A(2,4,15)             119.4917         estimate D2E/DX2                !
 ! A12   A(6,4,15)             120.5085         estimate D2E/DX2                !
 ! A13   A(3,5,6)              119.999          estimate D2E/DX2                !
 ! A14   A(3,5,16)             119.4946         estimate D2E/DX2                !
 ! A15   A(6,5,16)             120.5064         estimate D2E/DX2                !
 ! A16   A(4,6,5)              119.9974         estimate D2E/DX2                !
 ! A17   A(4,6,9)              120.0268         estimate D2E/DX2                !
 ! A18   A(5,6,9)              119.9758         estimate D2E/DX2                !
 ! A19   A(10,7,17)            111.0023         estimate D2E/DX2                !
 ! A20   A(10,7,18)            111.5234         estimate D2E/DX2                !
 ! A21   A(10,7,19)            110.589          estimate D2E/DX2                !
 ! A22   A(17,7,18)            107.939          estimate D2E/DX2                !
 ! A23   A(17,7,19)            107.6763         estimate D2E/DX2                !
 ! A24   A(18,7,19)            107.9606         estimate D2E/DX2                !
 ! A25   A(11,8,20)            107.81           estimate D2E/DX2                !
 ! A26   A(11,8,21)            107.8256         estimate D2E/DX2                !
 ! A27   A(11,8,22)            107.8176         estimate D2E/DX2                !
 ! A28   A(20,8,21)            111.0836         estimate D2E/DX2                !
 ! A29   A(20,8,22)            111.0629         estimate D2E/DX2                !
 ! A30   A(21,8,22)            111.0721         estimate D2E/DX2                !
 ! A31   A(6,9,10)             113.7612         estimate D2E/DX2                !
 ! A32   A(6,9,23)             108.1217         estimate D2E/DX2                !
 ! A33   A(6,9,24)             110.1168         estimate D2E/DX2                !
 ! A34   A(10,9,23)            109.0026         estimate D2E/DX2                !
 ! A35   A(10,9,24)            110.0324         estimate D2E/DX2                !
 ! A36   A(23,9,24)            105.4467         estimate D2E/DX2                !
 ! A37   A(7,10,9)             111.6402         estimate D2E/DX2                !
 ! A38   A(7,10,11)            107.8013         estimate D2E/DX2                !
 ! A39   A(7,10,25)            109.938          estimate D2E/DX2                !
 ! A40   A(9,10,11)            109.5378         estimate D2E/DX2                !
 ! A41   A(9,10,25)            111.589          estimate D2E/DX2                !
 ! A42   A(11,10,25)           106.1129         estimate D2E/DX2                !
 ! A43   A(8,11,10)            114.0896         estimate D2E/DX2                !
 ! A44   A(8,11,26)            109.3573         estimate D2E/DX2                !
 ! A45   A(8,11,27)            109.3479         estimate D2E/DX2                !
 ! A46   A(10,11,26)           108.8549         estimate D2E/DX2                !
 ! A47   A(10,11,27)           108.871          estimate D2E/DX2                !
 ! A48   A(26,11,27)           106.0062         estimate D2E/DX2                !
 ! D1    D(3,1,2,4)              0.0137         Frozen                          !
 ! D2    D(3,1,2,13)          -179.9319         Frozen                          !
 ! D3    D(12,1,2,4)           179.9143         Frozen                          !
 ! D4    D(12,1,2,13)           -0.0312         Frozen                          !
 ! D5    D(2,1,3,5)             -0.0137         Frozen                          !
 ! D6    D(2,1,3,14)           179.9303         Frozen                          !
 ! D7    D(12,1,3,5)          -179.9143         Frozen                          !
 ! D8    D(12,1,3,14)            0.0297         Frozen                          !
 ! D9    D(1,2,4,6)             -0.0098         Frozen                          !
 ! D10   D(1,2,4,15)           179.9804         Frozen                          !
 ! D11   D(13,2,4,6)           179.9358         Frozen                          !
 ! D12   D(13,2,4,15)           -0.074          Frozen                          !
 ! D13   D(1,3,5,6)              0.0099         Frozen                          !
 ! D14   D(1,3,5,16)          -179.988          Frozen                          !
 ! D15   D(14,3,5,6)          -179.9341         Frozen                          !
 ! D16   D(14,3,5,16)            0.0679         Frozen                          !
 ! D17   D(2,4,6,5)              0.0059         Frozen                          !
 ! D18   D(2,4,6,9)            179.9882         Frozen                          !
 ! D19   D(15,4,6,5)          -179.9841         Frozen                          !
 ! D20   D(15,4,6,9)            -0.0018         Frozen                          !
 ! D21   D(3,5,6,4)             -0.006          Frozen                          !
 ! D22   D(3,5,6,9)           -179.9883         Frozen                          !
 ! D23   D(16,5,6,4)           179.9919         Frozen                          !
 ! D24   D(16,5,6,9)             0.0096         Frozen                          !
 ! D25   D(4,6,9,10)           -89.9871         Frozen                          !
 ! D26   D(4,6,9,23)           148.787          Frozen                          !
 ! D27   D(4,6,9,24)            34.0583         Frozen                          !
 ! D28   D(5,6,9,10)            89.9952         Frozen                          !
 ! D29   D(5,6,9,23)           -31.2307         Frozen                          !
 ! D30   D(5,6,9,24)          -145.9594         Frozen                          !
 ! D31   D(17,7,10,9)          -55.5974         Frozen                          !
 ! D32   D(17,7,10,11)          64.7517         Frozen                          !
 ! D33   D(17,7,10,25)        -179.9998         Frozen                          !
 ! D34   D(18,7,10,9)           64.8044         Frozen                          !
 ! D35   D(18,7,10,11)        -174.8465         Frozen                          !
 ! D36   D(18,7,10,25)         -59.598          Frozen                          !
 ! D37   D(19,7,10,9)         -175.0469         Frozen                          !
 ! D38   D(19,7,10,11)         -54.6978         Frozen                          !
 ! D39   D(19,7,10,25)          60.5508         Frozen                          !
 ! D40   D(20,8,11,10)          57.8364         Frozen                          !
 ! D41   D(20,8,11,26)         179.9967         Frozen                          !
 ! D42   D(20,8,11,27)         -64.3378         Frozen                          !
 ! D43   D(21,8,11,10)         177.8492         Frozen                          !
 ! D44   D(21,8,11,26)         -59.9905         Frozen                          !
 ! D45   D(21,8,11,27)          55.675          Frozen                          !
 ! D46   D(22,8,11,10)         -62.1474         Frozen                          !
 ! D47   D(22,8,11,26)          60.0129         Frozen                          !
 ! D48   D(22,8,11,27)         175.6784         Frozen                          !
 ! D49   D(6,9,10,7)           -63.4674         Frozen                          !
 ! D50   D(6,9,10,11)          177.2064         Frozen                          !
 ! D51   D(6,9,10,25)           60.0047         Frozen                          !
 ! D52   D(23,9,10,7)           57.2658         Frozen                          !
 ! D53   D(23,9,10,11)         -62.0603         Frozen                          !
 ! D54   D(23,9,10,25)        -179.2621         Frozen                          !
 ! D55   D(24,9,10,7)          172.4417         Frozen                          !
 ! D56   D(24,9,10,11)          53.1155         Frozen                          !
 ! D57   D(24,9,10,25)         -64.0863         Frozen                          !
 ! D58   D(7,10,11,8)          177.7452         Frozen                          !
 ! D59   D(7,10,11,26)          55.3096         Frozen                          !
 ! D60   D(7,10,11,27)         -59.8192         Frozen                          !
 ! D61   D(9,10,11,8)          -60.5915         Frozen                          !
 ! D62   D(9,10,11,26)         176.9729         Frozen                          !
 ! D63   D(9,10,11,27)          61.8441         Frozen                          !
 ! D64   D(25,10,11,8)          59.9993         Frozen                          !
 ! D65   D(25,10,11,26)        -62.4363         Frozen                          !
 ! D66   D(25,10,11,27)       -177.5652         Frozen                          !
 --------------------------------------------------------------------------------
 Trust Radius=3.00D-01 FncErr=1.00D-07 GrdErr=1.00D-06 EigMax=2.50D+02 EigMin=1.00D-04
 Number of steps in this run=    151 maximum allowed number of steps=    162.
 GradGradGradGradGradGradGradGradGradGradGradGradGradGradGradGradGradGrad

                          Input orientation:                          
 ---------------------------------------------------------------------
 Center     Atomic      Atomic             Coordinates (Angstroms)
 Number     Number       Type             X           Y           Z
 ---------------------------------------------------------------------
      1          6           0        2.748600   -1.686600   -6.181200
      2          6           0        2.023200   -0.523100   -5.925200
      3          6           0        2.832100   -2.684300   -5.209900
      4          6           0        1.381500   -0.357100   -4.697800
      5          6           0        2.190500   -2.518400   -3.982600
      6          6           0        1.465100   -1.354800   -3.726500
      7          6           0        2.863900   -1.341800   -0.988300
      8          6           0       -0.353300    0.546800   -0.263900
      9          6           0        0.774300   -1.176500   -2.404000
     10          6           0        1.645000   -0.498100   -1.338200
     11          7           0        0.849000   -0.307500   -0.091000
     12          1           0        3.247000   -1.816300   -7.137400
     13          1           0        1.957100    0.253400   -6.681700
     14          1           0        3.395900   -3.590800   -5.409400
     15          1           0        0.818800    0.552900   -4.507000
     16          1           0        2.261200   -3.300900   -3.231800
     17          1           0        2.567300   -2.347400   -0.670700
     18          1           0        3.540900   -1.444000   -1.843500
     19          1           0        3.425000   -0.885400   -0.166100
     20          1           0       -0.978300    0.091600   -1.034300
     21          1           0       -0.876100    0.585700    0.693600
     22          1           0       -0.016600    1.539800   -0.567900
     23          1           0        0.471200   -2.168100   -2.040300
     24          1           0       -0.160700   -0.615900   -2.538700
     25          1           0        1.961100    0.502400   -1.653000
     26          1           0        1.455800    0.100500    0.631200
     27          1           0        0.564000   -1.228300    0.265400
 ---------------------------------------------------------------------
                    Distance matrix (angstroms):
                    1          2          3          4          5
     1  C    0.000000
     2  C    1.394802   0.000000
     3  C    1.394920   2.415938   0.000000
     4  C    2.415990   1.394936   2.789686   0.000000
     5  C    2.416032   2.789786   1.394790   2.416032   0.000000
     6  C    2.789806   2.416088   2.415934   1.394926   1.394904
     7  C    5.205612   5.074449   4.430037   4.114308   3.286896
     8  C    7.044452   6.232396   6.711907   4.846239   5.449321
     9  C    4.292470   3.792826   3.792239   2.510304   2.509641
    10  C    5.107359   4.602633   4.602036   3.372866   3.372245
    11  N    6.526939   5.955092   5.982057   4.637739   4.672500
    12  H    1.086068   2.153946   2.154257   3.400148   3.400279
    13  H    2.154199   1.086100   3.400280   2.154039   3.875886
    14  H    2.154217   3.400167   1.086008   3.875693   2.153785
    15  H    3.397416   2.149336   3.876456   1.086801   3.404327
    16  H    3.397423   3.876496   2.149186   3.404260   1.086741
    17  H    5.552939   5.588728   4.559381   4.645961   3.337649
    18  H    4.416134   4.451039   3.656965   3.740506   2.748393
    19  H    6.105806   5.938311   5.387717   4.999130   4.330860
    20  H    6.598663   5.771288   6.297651   4.380778   5.054292
    21  H    8.097202   7.310533   7.700322   5.920543   6.395805
    22  H    7.040250   6.092373   6.892480   4.754891   5.744602
    23  H    4.750310   4.495239   3.985809   3.342256   2.617486
    24  H    4.783119   4.030684   4.513362   2.665909   3.351491
    25  H    5.090822   4.393996   4.854404   3.216440   3.821635
    26  H    7.160576   6.610386   6.615721   5.349127   5.355891
    27  H    6.822109   6.399227   6.102714   5.104963   4.728146
                    6          7          8          9         10
     6  C    0.000000
     7  C    3.074825   0.000000
     8  C    4.348823   3.800255   0.000000
     9  C    1.502665   2.529419   2.970063   0.000000
    10  C    2.543674   1.523147   2.497827   1.534365   0.000000
    11  N    3.833181   2.436133   1.485008   2.471985   1.491795
    12  H    3.875873   6.179267   8.111190   5.378537   6.159121
    13  H    3.400232   5.981785   6.827312   4.662869   5.405104
    14  H    3.399976   4.988702   7.592918   4.661980   5.404176
    15  H    2.160140   4.489273   4.402017   2.723126   3.439259
    16  H    2.160048   3.038850   5.518046   2.721985   3.438184
    17  H    3.396765   1.095478   4.131802   2.755029   2.171659
    18  H    2.804031   1.095509   4.650077   2.835453   2.178185
    19  H    4.091209   1.095056   4.041820   3.481256   2.166153
    20  H    3.912827   4.101128   1.091489   2.560422   2.705883
    21  H    5.365076   4.531186   1.091622   3.927378   3.414495
    22  H    4.533310   4.096051   1.091711   3.372695   2.739948
    23  H    2.119567   2.741257   3.347548   1.098826   2.158622
    24  H    2.144777   3.475468   2.561968   1.098472   2.171550
    25  H    2.827474   2.158228   2.699633   2.188881   1.095454
    26  H    4.594294   2.585683   2.067179   3.362679   2.067040
    27  H    4.094295   2.621867   2.067021   2.678172   2.067193
                   11         12         13         14         15
    11  N    0.000000
    12  H    7.594645   0.000000
    13  H    6.706700   2.480960   0.000000
    14  H    6.749232   2.481331   4.297298   0.000000
    15  H    4.499139   4.292816   2.472801   4.962461   0.000000
    16  H    4.562826   4.292965   4.962594   2.472555   4.307949
    17  H    2.729432   6.523976   6.577889   4.968692   5.117244
    18  H    3.407230   5.315107   5.366355   4.164783   4.300194
    19  H    2.641095   7.035431   6.775296   5.900189   5.263497
    20  H    2.094784   7.664272   6.366779   7.199666   3.937259
    21  H    2.095083   9.170285   7.907749   8.540477   5.469918
    22  H    2.095045   8.066773   6.552012   7.836347   4.145886
    23  H    2.721091   5.814573   5.441889   4.682818   3.689075
    24  H    2.665678   5.848198   4.733414   5.453472   2.489923
    25  H    2.081477   6.091679   5.034863   5.737898   3.074527
    26  H    1.027737   8.199614   7.331656   7.340200   5.197262
    27  H    1.027676   7.895928   7.238671   6.767896   5.100333
                   16         17         18         19         20
    16  H    0.000000
    17  H    2.749926   0.000000
    18  H    2.648223   1.771860   0.000000
    19  H    4.072786   1.768535   1.771761   0.000000
    20  H    5.180002   4.318820   4.841078   4.593185   0.000000
    21  H    6.352722   4.724552   5.483288   4.626303   1.800061
    22  H    5.976380   4.668772   4.815187   4.229379   1.799911
    23  H    2.430434   2.510296   3.160081   3.725974   2.866937
    24  H    3.681740   3.732225   3.856280   4.308028   1.852632
    25  H    4.128893   3.074695   2.514067   2.505966   3.031768
    26  H    5.209699   2.987071   3.585702   2.342100   2.949375
    27  H    4.405288   2.478281   3.654575   2.913605   2.410404
                   21         22         23         24         25
    21  H    0.000000
    22  H    1.800119   0.000000
    23  H    4.107656   4.019258   0.000000
    24  H    3.521847   2.924356   1.748435   0.000000
    25  H    3.682822   2.482929   3.082430   2.556774   0.000000
    26  H    2.382660   2.382727   3.640453   3.629679   2.373694
    27  H    2.355385   2.948536   2.491604   2.960270   2.937255
                   26         27
    26  H    0.000000
    27  H    1.641593   0.000000
 Stoichiometry    C10H16N(1+)
 Framework group  C1[X(C10H16N)]
 Deg. of freedom    75
 Full point group                 C1      NOp   1
 Largest Abelian subgroup         C1      NOp   1
 Largest concise Abelian subgroup C1      NOp   1
                         Standard orientation:                         
 ---------------------------------------------------------------------
 Center     Atomic      Atomic             Coordinates (Angstroms)
 Number     Number       Type             X           Y           Z
 ---------------------------------------------------------------------
      1          6           0       -3.472600   -0.140261    0.231252
      2          6           0       -2.714834   -1.274746    0.521440
      3          6           0       -2.868611    0.969296   -0.360255
      4          6           0       -1.352996   -1.299644    0.220406
      5          6           0       -1.506920    0.944488   -0.661290
      6          6           0       -0.749037   -0.190024   -0.371030
      7          6           0        1.345578    1.759914    0.753638
      8          6           0        3.471234   -1.230834   -0.235784
      9          6           0        0.717985   -0.216087   -0.695329
     10          6           0        1.611957    0.292729    0.443176
     11          7           0        3.044733    0.162907    0.048522
     12          1           0       -4.533179   -0.121553    0.464417
     13          1           0       -3.185081   -2.139214    0.980980
     14          1           0       -3.458628    1.852318   -0.587335
     15          1           0       -0.770369   -2.187789    0.450361
     16          1           0       -1.044856    1.813605   -1.121876
     17          1           0        1.462113    2.378405   -0.143001
     18          1           0        0.331217    1.911534    1.138637
     19          1           0        2.050867    2.128574    1.505838
     20          1           0        2.832950   -1.619591   -1.031278
     21          1           0        4.516512   -1.203075   -0.549251
     22          1           0        3.351827   -1.810438    0.681621
     23          1           0        0.882421    0.407213   -1.585203
     24          1           0        1.022224   -1.230160   -0.988136
     25          1           0        1.490798   -0.309058    1.350476
     26          1           0        3.631897    0.552986    0.796400
     27          1           0        3.215613    0.746904   -0.779649
 ---------------------------------------------------------------------
 Rotational constants (GHZ):           2.4820327           0.5722776           0.5057061
 Standard basis: 6-31G(d,p) (6D, 7F)
 There are   245 symmetry adapted cartesian basis functions of A   symmetry.
 There are   245 symmetry adapted basis functions of A   symmetry.
   245 basis functions,   420 primitive gaussians,   245 cartesian basis functions
    41 alpha electrons       41 beta electrons
       nuclear repulsion energy       608.9665530068 Hartrees.
 NAtoms=   27 NActive=   27 NUniq=   27 SFac= 1.00D+00 NAtFMM=   60 NAOKFM=F Big=F
 Integral buffers will be    131072 words long.
 Raffenetti 2 integral format.
 Two-electron integral symmetry is turned on.
 One-electron integrals computed using PRISM.
 NBasis=   245 RedAO= T EigKep=  4.63D-04  NBF=   245
 NBsUse=   245 1.00D-06 EigRej= -1.00D+00 NBFU=   245
 ExpMin= 1.61D-01 ExpMax= 4.17D+03 ExpMxC= 6.27D+02 IAcc=3 IRadAn=         5 AccDes= 0.00D+00
 Harris functional with IExCor=  402 and IRadAn=       5 diagonalized for initial guess.
 HarFok:  IExCor=  402 AccDes= 0.00D+00 IRadAn=         5 IDoV= 1 UseB2=F ITyADJ=14
 ICtDFT=  3500011 ScaDFX=  1.000000  1.000000  1.000000  1.000000
 FoFCou: FMM=F IPFlag=           0 FMFlag=      100000 FMFlg1=           0
         NFxFlg=           0 DoJE=T BraDBF=F KetDBF=T FulRan=T
         wScrn=  0.000000 ICntrl=       500 IOpCl=  0 I1Cent=   200000004 NGrid=           0
         NMat0=    1 NMatS0=      1 NMatT0=    0 NMatD0=    1 NMtDS0=    0 NMtDT0=    0
 Petite list used in FoFCou.
 Requested convergence on RMS density matrix=1.00D-08 within 128 cycles.
 Requested convergence on MAX density matrix=1.00D-06.
 Requested convergence on             energy=1.00D-06.
 No special actions if energy rises.
 Integral accuracy reduced to 1.0D-05 until final iterations.
 Initial convergence to 1.0D-05 achieved.  Increase integral accuracy.
 SCF Done:  E(RB3LYP) =  -445.246575742     A.U. after   13 cycles
            NFock= 13  Conv=0.45D-08     -V/T= 2.0096

 **********************************************************************

            Population analysis using the SCF density.

 **********************************************************************

 Orbital symmetries:
       Occupied  (A) (A) (A) (A) (A) (A) (A) (A) (A) (A) (A) (A)
                 (A) (A) (A) (A) (A) (A) (A) (A) (A) (A) (A) (A)
                 (A) (A) (A) (A) (A) (A) (A) (A) (A) (A) (A) (A)
                 (A) (A) (A) (A) (A)
       Virtual   (A) (A) (A) (A) (A) (A) (A) (A) (A) (A) (A) (A)
                 (A) (A) (A) (A) (A) (A) (A) (A) (A) (A) (A) (A)
                 (A) (A) (A) (A) (A) (A) (A) (A) (A) (A) (A) (A)
                 (A) (A) (A) (A) (A) (A) (A) (A) (A) (A) (A) (A)
                 (A) (A) (A) (A) (A) (A) (A) (A) (A) (A) (A) (A)
                 (A) (A) (A) (A) (A) (A) (A) (A) (A) (A) (A) (A)
                 (A) (A) (A) (A) (A) (A) (A) (A) (A) (A) (A) (A)
                 (A) (A) (A) (A) (A) (A) (A) (A) (A) (A) (A) (A)
                 (A) (A) (A) (A) (A) (A) (A) (A) (A) (A) (A) (A)
                 (A) (A) (A) (A) (A) (A) (A) (A) (A) (A) (A) (A)
                 (A) (A) (A) (A) (A) (A) (A) (A) (A) (A) (A) (A)
                 (A) (A) (A) (A) (A) (A) (A) (A) (A) (A) (A) (A)
                 (A) (A) (A) (A) (A) (A) (A) (A) (A) (A) (A) (A)
                 (A) (A) (A) (A) (A) (A) (A) (A) (A) (A) (A) (A)
                 (A) (A) (A) (A) (A) (A) (A) (A) (A) (A) (A) (A)
                 (A) (A) (A) (A) (A) (A) (A) (A) (A) (A) (A) (A)
                 (A) (A) (A) (A) (A) (A) (A) (A) (A) (A) (A) (A)
 The electronic state is 1-A.
 Alpha  occ. eigenvalues --  -14.64171 -10.41581 -10.41529 -10.34706 -10.34188
 Alpha  occ. eigenvalues --  -10.31585 -10.30102 -10.30089 -10.29488 -10.29468
 Alpha  occ. eigenvalues --  -10.29224  -1.19814  -0.98501  -0.95449  -0.90776
 Alpha  occ. eigenvalues --   -0.87271  -0.85333  -0.83473  -0.79849  -0.76703
 Alpha  occ. eigenvalues --   -0.71608  -0.69332  -0.68645  -0.67581  -0.62760
 Alpha  occ. eigenvalues --   -0.61992  -0.59784  -0.58633  -0.57646  -0.56521
 Alpha  occ. eigenvalues --   -0.54873  -0.54040  -0.52856  -0.52379  -0.52096
 Alpha  occ. eigenvalues --   -0.50388  -0.46729  -0.45198  -0.44938  -0.35825
 Alpha  occ. eigenvalues --   -0.35683
 Alpha virt. eigenvalues --   -0.14063  -0.11837  -0.11075  -0.09224  -0.06147
 Alpha virt. eigenvalues --   -0.05259  -0.04254  -0.02714  -0.02365  -0.00754
 Alpha virt. eigenvalues --    0.00354   0.00989   0.01177   0.02325   0.03164
 Alpha virt. eigenvalues --    0.04323   0.04970   0.06131   0.07807   0.08128
 Alpha virt. eigenvalues --    0.09432   0.09841   0.10628   0.13671   0.20122
 Alpha virt. eigenvalues --    0.21048   0.21657   0.23417   0.29546   0.30565
 Alpha virt. eigenvalues --    0.32730   0.34624   0.36817   0.38649   0.40483
 Alpha virt. eigenvalues --    0.41316   0.43329   0.43872   0.44949   0.45156
 Alpha virt. eigenvalues --    0.46573   0.48884   0.49180   0.49657   0.50571
 Alpha virt. eigenvalues --    0.51326   0.51729   0.53248   0.54749   0.55491
 Alpha virt. eigenvalues --    0.57561   0.58687   0.61630   0.62216   0.63914
 Alpha virt. eigenvalues --    0.65685   0.67657   0.67947   0.68979   0.69781
 Alpha virt. eigenvalues --    0.70553   0.71338   0.72651   0.73161   0.74118
 Alpha virt. eigenvalues --    0.74240   0.76066   0.77010   0.77775   0.78595
 Alpha virt. eigenvalues --    0.80048   0.82312   0.84789   0.85486   0.87300
 Alpha virt. eigenvalues --    0.88514   0.91662   0.94528   1.00143   1.02165
 Alpha virt. eigenvalues --    1.06017   1.06176   1.06752   1.13595   1.15100
 Alpha virt. eigenvalues --    1.18756   1.21009   1.22500   1.25626   1.29402
 Alpha virt. eigenvalues --    1.30215   1.30847   1.31484   1.32319   1.34744
 Alpha virt. eigenvalues --    1.39610   1.43094   1.47385   1.48624   1.54244
 Alpha virt. eigenvalues --    1.58498   1.62416   1.65082   1.65486   1.68585
 Alpha virt. eigenvalues --    1.69158   1.72988   1.74983   1.75717   1.77018
 Alpha virt. eigenvalues --    1.77254   1.78378   1.80875   1.82100   1.83146
 Alpha virt. eigenvalues --    1.83897   1.84506   1.86347   1.86468   1.86951
 Alpha virt. eigenvalues --    1.88276   1.89955   1.91363   1.93988   1.96256
 Alpha virt. eigenvalues --    1.97580   1.98892   2.00217   2.04261   2.06514
 Alpha virt. eigenvalues --    2.07700   2.08879   2.12927   2.15321   2.16678
 Alpha virt. eigenvalues --    2.19039   2.19695   2.21076   2.22412   2.24017
 Alpha virt. eigenvalues --    2.26463   2.27298   2.28411   2.30717   2.32794
 Alpha virt. eigenvalues --    2.33633   2.34904   2.36905   2.39789   2.40497
 Alpha virt. eigenvalues --    2.42233   2.42933   2.45494   2.46603   2.49121
 Alpha virt. eigenvalues --    2.50003   2.52790   2.54532   2.55333   2.56901
 Alpha virt. eigenvalues --    2.59494   2.61676   2.63067   2.64626   2.65396
 Alpha virt. eigenvalues --    2.68487   2.70534   2.72533   2.72608   2.74701
 Alpha virt. eigenvalues --    2.75802   2.77389   2.80242   2.93673   2.95295
 Alpha virt. eigenvalues --    3.00108   3.03690   3.07742   3.09192   3.10006
 Alpha virt. eigenvalues --    3.13662   3.14202   3.14846   3.23149   3.24624
 Alpha virt. eigenvalues --    3.25187   3.28366   3.32791   3.33898   3.37102
 Alpha virt. eigenvalues --    3.38979   3.40314   3.79727   3.97744   4.03626
 Alpha virt. eigenvalues --    4.05910   4.10179   4.20296   4.28570   4.33282
 Alpha virt. eigenvalues --    4.35781   4.41143   4.56629   4.73659
          Condensed to atoms (all electrons):
               1          2          3          4          5          6
     1  C    4.786666   0.548383   0.548575  -0.041768  -0.041866  -0.034371
     2  C    0.548383   4.798784  -0.028028   0.527082  -0.046414  -0.024490
     3  C    0.548575  -0.028028   4.802600  -0.046049   0.527003  -0.026868
     4  C   -0.041768   0.527082  -0.046049   4.876879  -0.033073   0.549758
     5  C   -0.041866  -0.046414   0.527003  -0.033073   4.885563   0.543110
     6  C   -0.034371  -0.024490  -0.026868   0.549758   0.543110   4.722907
     7  C    0.000017   0.000005  -0.000283  -0.000009  -0.001865  -0.004233
     8  C    0.000000   0.000000  -0.000000  -0.000007  -0.000006   0.000245
     9  C    0.000357   0.007192   0.007286  -0.061220  -0.057692   0.343177
    10  C    0.000010   0.000078   0.000033  -0.003783  -0.006030  -0.044952
    11  N   -0.000000   0.000001   0.000001   0.000067  -0.000008   0.002399
    12  H    0.374052  -0.038283  -0.038480   0.004669   0.004696   0.000730
    13  H   -0.036923   0.369809   0.004217  -0.035480   0.000969   0.003829
    14  H   -0.036717   0.004201   0.369900   0.000972  -0.035672   0.003827
    15  H    0.004900  -0.035731   0.000312   0.370109   0.005190  -0.053848
    16  H    0.004754   0.000331  -0.035282   0.005062   0.370499  -0.052613
    17  H    0.000000  -0.000000   0.000016   0.000002   0.000351  -0.001186
    18  H   -0.000038  -0.000087   0.000310   0.000279   0.005706   0.006136
    19  H   -0.000000  -0.000001   0.000003  -0.000005   0.000142   0.000300
    20  H    0.000000  -0.000001  -0.000000  -0.000000  -0.000003   0.000271
    21  H   -0.000000   0.000000  -0.000000  -0.000000   0.000000  -0.000003
    22  H   -0.000000  -0.000000  -0.000000   0.000002   0.000000  -0.000047
    23  H    0.000022  -0.000221   0.000111   0.003039  -0.003502  -0.025240
    24  H    0.000019   0.000112  -0.000197  -0.003515   0.002917  -0.019716
    25  H   -0.000003  -0.000101  -0.000012   0.002905   0.000113  -0.000698
    26  H    0.000000  -0.000000  -0.000000   0.000000  -0.000002  -0.000042
    27  H   -0.000000  -0.000000   0.000000   0.000002   0.000002  -0.000115
               7          8          9         10         11         12
     1  C    0.000017   0.000000   0.000357   0.000010  -0.000000   0.374052
     2  C    0.000005   0.000000   0.007192   0.000078   0.000001  -0.038283
     3  C   -0.000283  -0.000000   0.007286   0.000033   0.000001  -0.038480
     4  C   -0.000009  -0.000007  -0.061220  -0.003783   0.000067   0.004669
     5  C   -0.001865  -0.000006  -0.057692  -0.006030  -0.000008   0.004696
     6  C   -0.004233   0.000245   0.343177  -0.044952   0.002399   0.000730
     7  C    4.997783   0.005044  -0.056030   0.362229  -0.052509  -0.000000
     8  C    0.005044   4.924982  -0.006363  -0.039397   0.220316   0.000000
     9  C   -0.056030  -0.006363   5.144005   0.323886  -0.044840   0.000005
    10  C    0.362229  -0.039397   0.323886   5.088444   0.152650   0.000000
    11  N   -0.052509   0.220316  -0.044840   0.152650   6.674294   0.000000
    12  H   -0.000000   0.000000   0.000005   0.000000   0.000000   0.583413
    13  H    0.000000  -0.000000  -0.000208  -0.000003  -0.000000  -0.005527
    14  H    0.000001  -0.000000  -0.000206  -0.000002  -0.000000  -0.005551
    15  H    0.000045   0.000009  -0.010354   0.000046  -0.000049  -0.000179
    16  H    0.000319   0.000000  -0.010096  -0.000414  -0.000037  -0.000176
    17  H    0.383683  -0.000024  -0.006003  -0.034622  -0.005422  -0.000000
    18  H    0.383714  -0.000109  -0.004194  -0.021747   0.003547   0.000000
    19  H    0.374528   0.000011   0.005138  -0.034759  -0.004267  -0.000000
    20  H    0.000132   0.397285   0.004592  -0.008275  -0.031691  -0.000000
    21  H   -0.000202   0.387981   0.000268   0.003827  -0.028349  -0.000000
    22  H    0.000036   0.394595  -0.001277  -0.001482  -0.032582  -0.000000
    23  H   -0.008606  -0.000675   0.368879  -0.042366  -0.003857  -0.000000
    24  H    0.005205  -0.002666   0.368431  -0.042008  -0.004028  -0.000000
    25  H   -0.038217  -0.003371  -0.037349   0.395365  -0.042657  -0.000000
    26  H   -0.001337  -0.024511   0.004839  -0.022820   0.335032  -0.000000
    27  H   -0.002069  -0.025684  -0.003881  -0.023927   0.328108   0.000000
              13         14         15         16         17         18
     1  C   -0.036923  -0.036717   0.004900   0.004754   0.000000  -0.000038
     2  C    0.369809   0.004201  -0.035731   0.000331  -0.000000  -0.000087
     3  C    0.004217   0.369900   0.000312  -0.035282   0.000016   0.000310
     4  C   -0.035480   0.000972   0.370109   0.005062   0.000002   0.000279
     5  C    0.000969  -0.035672   0.005190   0.370499   0.000351   0.005706
     6  C    0.003829   0.003827  -0.053848  -0.052613  -0.001186   0.006136
     7  C    0.000000   0.000001   0.000045   0.000319   0.383683   0.383714
     8  C   -0.000000  -0.000000   0.000009   0.000000  -0.000024  -0.000109
     9  C   -0.000208  -0.000206  -0.010354  -0.010096  -0.006003  -0.004194
    10  C   -0.000003  -0.000002   0.000046  -0.000414  -0.034622  -0.021747
    11  N   -0.000000  -0.000000  -0.000049  -0.000037  -0.005422   0.003547
    12  H   -0.005527  -0.005551  -0.000179  -0.000176  -0.000000   0.000000
    13  H    0.587719  -0.000175  -0.005784   0.000016   0.000000  -0.000000
    14  H   -0.000175   0.587404   0.000017  -0.005689  -0.000002   0.000002
    15  H   -0.005784   0.000017   0.634016  -0.000166  -0.000001   0.000003
    16  H    0.000016  -0.005689  -0.000166   0.626958   0.000848   0.000058
    17  H    0.000000  -0.000002  -0.000001   0.000848   0.566691  -0.021247
    18  H   -0.000000   0.000002   0.000003   0.000058  -0.021247   0.478251
    19  H    0.000000   0.000000   0.000000   0.000040  -0.031906  -0.018016
    20  H    0.000000   0.000000   0.000026   0.000001   0.000003   0.000001
    21  H   -0.000000   0.000000   0.000000  -0.000000   0.000006   0.000002
    22  H    0.000000   0.000000   0.000016  -0.000000   0.000004   0.000002
    23  H    0.000003  -0.000010   0.000102   0.005111   0.004657   0.000108
    24  H   -0.000009   0.000003   0.004678   0.000068   0.000025   0.000065
    25  H    0.000003   0.000000   0.000723   0.000022   0.004751  -0.002334
    26  H    0.000000   0.000000   0.000002   0.000002  -0.000641  -0.000140
    27  H    0.000000  -0.000000   0.000000  -0.000001   0.005843  -0.000080
              19         20         21         22         23         24
     1  C   -0.000000   0.000000  -0.000000  -0.000000   0.000022   0.000019
     2  C   -0.000001  -0.000001   0.000000  -0.000000  -0.000221   0.000112
     3  C    0.000003  -0.000000  -0.000000  -0.000000   0.000111  -0.000197
     4  C   -0.000005  -0.000000  -0.000000   0.000002   0.003039  -0.003515
     5  C    0.000142  -0.000003   0.000000   0.000000  -0.003502   0.002917
     6  C    0.000300   0.000271  -0.000003  -0.000047  -0.025240  -0.019716
     7  C    0.374528   0.000132  -0.000202   0.000036  -0.008606   0.005205
     8  C    0.000011   0.397285   0.387981   0.394595  -0.000675  -0.002666
     9  C    0.005138   0.004592   0.000268  -0.001277   0.368879   0.368431
    10  C   -0.034759  -0.008275   0.003827  -0.001482  -0.042366  -0.042008
    11  N   -0.004267  -0.031691  -0.028349  -0.032582  -0.003857  -0.004028
    12  H   -0.000000  -0.000000  -0.000000  -0.000000  -0.000000  -0.000000
    13  H    0.000000   0.000000  -0.000000   0.000000   0.000003  -0.000009
    14  H    0.000000   0.000000   0.000000   0.000000  -0.000010   0.000003
    15  H    0.000000   0.000026   0.000000   0.000016   0.000102   0.004678
    16  H    0.000040   0.000001  -0.000000  -0.000000   0.005111   0.000068
    17  H   -0.031906   0.000003   0.000006   0.000004   0.004657   0.000025
    18  H   -0.018016   0.000001   0.000002   0.000002   0.000108   0.000065
    19  H    0.577721  -0.000007  -0.000003  -0.000005   0.000071  -0.000175
    20  H   -0.000007   0.476166  -0.020576  -0.021592   0.000617   0.004822
    21  H   -0.000003  -0.020576   0.497833  -0.021706  -0.000060   0.000118
    22  H   -0.000005  -0.021592  -0.021706   0.484269   0.000089   0.000161
    23  H    0.000071   0.000617  -0.000060   0.000089   0.598615  -0.035038
    24  H   -0.000175   0.004822   0.000118   0.000161  -0.035038   0.594344
    25  H   -0.003678  -0.000265  -0.000023   0.004782   0.005225  -0.003300
    26  H    0.006764   0.003492  -0.002359  -0.003745  -0.000015  -0.000244
    27  H   -0.000405  -0.002872  -0.003030   0.004006   0.006263  -0.000331
              25         26         27
     1  C   -0.000003   0.000000  -0.000000
     2  C   -0.000101  -0.000000  -0.000000
     3  C   -0.000012  -0.000000   0.000000
     4  C    0.002905   0.000000   0.000002
     5  C    0.000113  -0.000002   0.000002
     6  C   -0.000698  -0.000042  -0.000115
     7  C   -0.038217  -0.001337  -0.002069
     8  C   -0.003371  -0.024511  -0.025684
     9  C   -0.037349   0.004839  -0.003881
    10  C    0.395365  -0.022820  -0.023927
    11  N   -0.042657   0.335032   0.328108
    12  H   -0.000000  -0.000000   0.000000
    13  H    0.000003   0.000000   0.000000
    14  H    0.000000   0.000000  -0.000000
    15  H    0.000723   0.000002   0.000000
    16  H    0.000022   0.000002  -0.000001
    17  H    0.004751  -0.000641   0.005843
    18  H   -0.002334  -0.000140  -0.000080
    19  H   -0.003678   0.006764  -0.000405
    20  H   -0.000265   0.003492  -0.002872
    21  H   -0.000023  -0.002359  -0.003030
    22  H    0.004782  -0.003745   0.004006
    23  H    0.005225  -0.000015   0.006263
    24  H   -0.003300  -0.000244  -0.000331
    25  H    0.546738  -0.003631   0.005661
    26  H   -0.003631   0.378163  -0.020032
    27  H    0.005661  -0.020032   0.385681
 Mulliken charges:
               1
     1  C   -0.076070
     2  C   -0.082620
     3  C   -0.085169
     4  C   -0.115918
     5  C   -0.120128
     6  C    0.111733
     7  C   -0.347383
     8  C   -0.227654
     9  C   -0.278342
    10  C    0.000019
    11  N   -0.466123
    12  H    0.120632
    13  H    0.117544
    14  H    0.117698
    15  H    0.085916
    16  H    0.090385
    17  H    0.134173
    18  H    0.189805
    19  H    0.128511
    20  H    0.197872
    21  H    0.186277
    22  H    0.194474
    23  H    0.126676
    24  H    0.130258
    25  H    0.169350
    26  H    0.351223
    27  H    0.346860
 Sum of Mulliken charges =   1.00000
 Mulliken charges with hydrogens summed into heavy atoms:
               1
     1  C    0.044562
     2  C    0.034924
     3  C    0.032529
     4  C   -0.030001
     5  C   -0.029743
     6  C    0.111733
     7  C    0.105106
     8  C    0.350969
     9  C   -0.021407
    10  C    0.169369
    11  N    0.231960
 Electronic spatial extent (au):  <R**2>=           2269.2049
 Charge=              1.0000 electrons
 Dipole moment (field-independent basis, Debye):
    X=             10.7447    Y=              0.3897    Z=              0.4333  Tot=             10.7605
 Quadrupole moment (field-independent basis, Debye-Ang):
   XX=            -13.4401   YY=            -56.1220   ZZ=            -63.4817
   XY=             -0.7321   XZ=             -1.2413   YZ=             -1.7056
 Traceless Quadrupole moment (field-independent basis, Debye-Ang):
   XX=             30.9078   YY=            -11.7741   ZZ=            -19.1338
   XY=             -0.7321   XZ=             -1.2413   YZ=             -1.7056
 Octapole moment (field-independent basis, Debye-Ang**2):
  XXX=            126.1061  YYY=             -1.3147  ZZZ=              1.8766  XYY=             13.2700
  XXY=             -2.2225  XXZ=              7.6481  XZZ=             21.2862  YZZ=              1.9324
  YYZ=              1.6211  XYZ=              7.8445
 Hexadecapole moment (field-independent basis, Debye-Ang**3):
 XXXX=          -1511.7362 YYYY=           -498.7306 ZZZZ=           -199.7412 XXXY=            -24.6834
 XXXZ=            -29.0439 YYYX=             -8.3483 YYYZ=             -9.6720 ZZZX=              1.4285
 ZZZY=              1.3090 XXYY=           -392.9183 XXZZ=           -390.1604 YYZZ=           -112.5362
 XXYZ=            -13.4355 YYXZ=             -4.1982 ZZXY=              2.7470
 N-N= 6.089665530068D+02 E-N=-2.235025386363D+03  KE= 4.409963815081D+02
 Calling FoFJK, ICntrl=      2127 FMM=F ISym2X=0 I1Cent= 0 IOpClX= 0 NMat=1 NMatS=1 NMatT=0.
 ***** Axes restored to original set *****
 -------------------------------------------------------------------
 Center     Atomic                   Forces (Hartrees/Bohr)
 Number     Number              X              Y              Z
 -------------------------------------------------------------------
      1        6           0.000810020   -0.000160688   -0.001506874
      2        6           0.000159101    0.001481560   -0.000832355
      3        6           0.001261593   -0.001113569   -0.000173758
      4        6           0.002652134    0.001673603   -0.005151680
      5        6           0.003753559   -0.003135573   -0.005018664
      6        6          -0.001066814    0.002819096    0.001687646
      7        6           0.005923590    0.001343059    0.005750012
      8        6          -0.008211357    0.004091131    0.004714307
      9        6          -0.011277185   -0.001188538    0.001796718
     10        6           0.015607589   -0.011361269   -0.016813891
     11        7          -0.002168077    0.000357071    0.012377183
     12        1          -0.000386822   -0.000031070    0.000423307
     13        1          -0.000259269   -0.000322369    0.000403456
     14        1          -0.000479784    0.000162608    0.000187261
     15        1          -0.000970758   -0.000263937    0.000423158
     16        1          -0.001356964   -0.000300266   -0.000333703
     17        1           0.000085122   -0.000789703   -0.000886469
     18        1          -0.003795582    0.001601854    0.002265532
     19        1           0.002883087    0.000143447   -0.000278430
     20        1          -0.001559826    0.004985781    0.005676044
     21        1          -0.001805869    0.002544589   -0.002149417
     22        1          -0.002862179   -0.000444865    0.000056643
     23        1           0.000761532    0.000216076    0.003459930
     24        1           0.004778305   -0.001006869   -0.004843159
     25        1          -0.002451996    0.000106989   -0.000700637
     26        1          -0.001014021   -0.001653349   -0.000276560
     27        1           0.000990871    0.000245200   -0.000255598
 -------------------------------------------------------------------
 Cartesian Forces:  Max     0.016813891 RMS     0.004183223

 GradGradGradGradGradGradGradGradGradGradGradGradGradGradGradGradGradGrad
 Berny optimization.
 FormGI is forming the generalized inverse of G from B-inverse, IUseBI=4.
 Internal  Forces:  Max     0.027007068 RMS     0.004198463
 Search for a local minimum.
 Step number   1 out of a maximum of  151
 All quantities printed in internal units (Hartrees-Bohrs-Radians)
 Mixed Optimization -- RFO/linear search
 Second derivative matrix not updated -- first step.
 ITU=  0
     Eigenvalues ---    0.16000   0.16000   0.16000   0.16000   0.16000
     Eigenvalues ---    0.16000   0.21754   0.21783   0.29024   0.30065
     Eigenvalues ---    0.32099   0.33254   0.33812   0.33852   0.34003
     Eigenvalues ---    0.34184   0.34187   0.34190   0.34235   0.34616
     Eigenvalues ---    0.34626   0.34641   0.35185   0.35192   0.35267
     Eigenvalues ---    0.35271   0.35278   0.36856   0.41637   0.43126
     Eigenvalues ---    0.43136   0.46472   0.46480   0.46484 999.99985
     Eigenvalues ---  999.99991 999.99992 999.99994 999.99996 999.99997
     Eigenvalues ---  999.99998 999.99998 999.99999 999.99999 999.99999
     Eigenvalues ---  999.99999 999.999991000.000001000.000001000.00000
     Eigenvalues --- 1000.000001000.000001000.000001000.000001000.00000
     Eigenvalues --- 1000.000001000.000001000.000001000.000001000.00000
     Eigenvalues --- 1000.000001000.000001000.000001000.000001000.00000
     Eigenvalues --- 1000.000001000.000001000.000001000.000001000.00000
     Eigenvalues --- 1000.000001000.000001000.000001000.000001000.00000
     Eigenvalues --- 1000.000001000.000001000.000001000.000001000.00000
     Eigenvalues --- 1000.000001000.000001000.000001000.000001000.00000
     Eigenvalues --- 1000.000001000.000001000.000001000.000001000.00000
     Eigenvalues --- 1000.000001000.000001000.000001000.000001000.00000
     Eigenvalues --- 1000.000001000.000001000.000001000.000001000.00000
     Eigenvalues --- 1000.000001000.000001000.000001000.000001000.00000
     Eigenvalues --- 1000.000001000.000001000.000001000.000001000.00000
     Eigenvalues --- 1000.000001000.000001000.000001000.000001000.00000
     Eigenvalues --- 1000.000001000.000001000.000001000.000001000.00000
     Eigenvalues --- 1000.000001000.000001000.000001000.000001000.00000
     Eigenvalues --- 1000.000001000.000001000.000011000.000011000.00001
     Eigenvalues --- 1000.000011000.000011000.000021000.000021000.00002
     Eigenvalues --- 1000.000041000.000061000.000071000.000091000.00015
     Eigenvalues --- 1000.00063
 RFO step:  Lambda=-7.25213240D-03 EMin= 1.60000000D-01
 Linear search not attempted -- first point.
 Iteration  1 RMS(Cart)=  0.06246194 RMS(Int)=  0.00131825
 Iteration  2 RMS(Cart)=  0.00242580 RMS(Int)=  0.00012918
 Iteration  3 RMS(Cart)=  0.00000561 RMS(Int)=  0.00012914
 Iteration  4 RMS(Cart)=  0.00000000 RMS(Int)=  0.00012914
 Iteration  1 RMS(Cart)=  0.00005592 RMS(Int)=  0.00002851
 Iteration  2 RMS(Cart)=  0.00001525 RMS(Int)=  0.00003124
 Iteration  3 RMS(Cart)=  0.00000428 RMS(Int)=  0.00003290
 Iteration  4 RMS(Cart)=  0.00000128 RMS(Int)=  0.00003344
 Iteration  5 RMS(Cart)=  0.00000044 RMS(Int)=  0.00003362
 Variable       Old X    -DE/DX   Delta X   Delta X   Delta X     New X
                                 (Linear)    (Quad)   (Total)
    R1        2.63579   0.00077   0.00000   0.00421   0.00421   2.64001
    R2        2.63602   0.00078   0.00000   0.00402   0.00402   2.64004
    R3        2.05237  -0.00055   0.00000  -0.00152  -0.00152   2.05085
    R4        2.63605   0.00078   0.00000   0.00150   0.00150   2.63754
    R5        2.05243  -0.00050   0.00000  -0.00138  -0.00138   2.05106
    R6        2.63577   0.00104   0.00000   0.00237   0.00237   2.63814
    R7        2.05226  -0.00042   0.00000  -0.00117  -0.00117   2.05109
    R8        2.63603   0.00515   0.00000   0.00844   0.00844   2.64446
    R9        2.05376   0.00036   0.00000   0.00099   0.00099   2.05475
   R10        2.63599   0.00610   0.00000   0.01044   0.01044   2.64643
   R11        2.05364  -0.00010   0.00000  -0.00029  -0.00029   2.05336
   R12        2.83963   0.01050   0.00000   0.03199   0.03199   2.87162
   R13        2.87833   0.00438   0.00000   0.01422   0.01422   2.89256
   R14        2.07015   0.00045   0.00000   0.00128   0.00128   2.07143
   R15        2.07021  -0.00426   0.00000  -0.01221  -0.01221   2.05800
   R16        2.06936   0.00133   0.00000   0.00380   0.00380   2.07315
   R17        2.80626   0.01715   0.00000   0.04939   0.04939   2.85565
   R18        2.06262  -0.00519   0.00000  -0.01468  -0.01468   2.04793
   R19        2.06287  -0.00093   0.00000  -0.00263  -0.00263   2.06024
   R20        2.06303  -0.00130   0.00000  -0.00369  -0.00369   2.05935
   R21        2.89953   0.00802   0.00000   0.02697   0.02697   2.92650
   R22        2.07648   0.00074   0.00000   0.00214   0.00214   2.07862
   R23        2.07581  -0.00399   0.00000  -0.01153  -0.01153   2.06428
   R24        2.81908   0.02701   0.00000   0.07948   0.07948   2.89857
   R25        2.07011  -0.00041   0.00000  -0.00117  -0.00117   2.06894
   R26        1.94214  -0.00145   0.00000  -0.00330  -0.00330   1.93884
   R27        1.94203  -0.00058   0.00000  -0.00133  -0.00133   1.94070
    A1        2.09435  -0.00010   0.00000  -0.00000  -0.00000   2.09435
    A2        2.09425   0.00007   0.00000   0.00000   0.00000   2.09425
    A3        2.09459   0.00003   0.00000   0.00000   0.00000   2.09459
    A4        2.09440   0.00044   0.00000   0.00189   0.00188   2.09629
    A5        2.09462   0.00000   0.00000  -0.00094  -0.00094   2.09368
    A6        2.09416  -0.00044   0.00000  -0.00094  -0.00094   2.09322
    A7        2.09450   0.00046   0.00000   0.00162   0.00162   2.09611
    A8        2.09460  -0.00000   0.00000  -0.00081  -0.00081   2.09379
    A9        2.09408  -0.00046   0.00000  -0.00081  -0.00081   2.09328
   A10        2.09439   0.00221   0.00000  -0.00150  -0.00150   2.09290
   A11        2.08552  -0.00038   0.00000   0.00076   0.00076   2.08629
   A12        2.10327  -0.00183   0.00000   0.00073   0.00073   2.10400
   A13        2.09438   0.00187   0.00000  -0.00200  -0.00200   2.09238
   A14        2.08557  -0.00053   0.00000   0.00102   0.00102   2.08660
   A15        2.10323  -0.00134   0.00000   0.00098   0.00098   2.10421
   A16        2.09435  -0.00488   0.00000   0.00000   0.00000   2.09435
   A17        2.09486   0.00013   0.00000   0.00000  -0.00000   2.09486
   A18        2.09397   0.00474   0.00000  -0.00000  -0.00000   2.09397
   A19        1.93736   0.00057   0.00000   0.00169   0.00164   1.93900
   A20        1.94645  -0.00391   0.00000  -0.01916  -0.01911   1.92734
   A21        1.93014   0.00334   0.00000   0.01757   0.01761   1.94775
   A22        1.88389   0.00079   0.00000   0.00930   0.00928   1.89317
   A23        1.87931  -0.00032   0.00000  -0.01004  -0.01009   1.86921
   A24        1.88427  -0.00045   0.00000   0.00069   0.00081   1.88508
   A25        1.88164   0.00695   0.00000   0.04012   0.03964   1.92128
   A26        1.88191   0.00360   0.00000   0.02315   0.02279   1.90470
   A27        1.88177   0.00212   0.00000   0.01245   0.01225   1.89402
   A28        1.93877  -0.00503   0.00000  -0.02964  -0.03028   1.90849
   A29        1.93841  -0.00353   0.00000  -0.02461  -0.02494   1.91347
   A30        1.93857  -0.00330   0.00000  -0.01667  -0.01674   1.92183
   A31        1.98551  -0.00097   0.00000  -0.00205  -0.00205   1.98346
   A32        1.88708   0.00332   0.00000   0.00069   0.00069   1.88777
   A33        1.92190  -0.00390   0.00000   0.00072   0.00072   1.92262
   A34        1.90245  -0.00204   0.00000   0.00066   0.00066   1.90311
   A35        1.92043   0.00275   0.00000   0.00072   0.00072   1.92115
   A36        1.84039   0.00102   0.00000  -0.00064  -0.00064   1.83975
   A37        1.94849   0.00200   0.00000  -0.00000  -0.00000   1.94849
   A38        1.88149  -0.00629   0.00000   0.00000   0.00000   1.88149
   A39        1.91878   0.00105   0.00000   0.00000  -0.00000   1.91878
   A40        1.91179   0.00756   0.00000   0.00000  -0.00000   1.91179
   A41        1.94760  -0.00361   0.00000   0.00000   0.00000   1.94760
   A42        1.85202  -0.00091   0.00000   0.00000  -0.00000   1.85202
   A43        1.99124   0.02055   0.00000   0.08468   0.08534   2.07658
   A44        1.90864  -0.00736   0.00000  -0.02828  -0.02798   1.88066
   A45        1.90848  -0.00427   0.00000  -0.02831  -0.02801   1.88047
   A46        1.89988  -0.00657   0.00000  -0.02909  -0.02886   1.87102
   A47        1.90016  -0.00622   0.00000  -0.02908  -0.02884   1.87132
   A48        1.85016   0.00266   0.00000   0.02638   0.02527   1.87543
    D1        0.00024   0.00006   0.00000   0.00000  -0.00000   0.00024
    D2       -3.14040   0.00032   0.00000   0.00000  -0.00000  -3.14040
    D3        3.14010  -0.00024   0.00000   0.00000  -0.00000   3.14010
    D4       -0.00055   0.00002   0.00000   0.00000  -0.00000  -0.00055
    D5       -0.00024  -0.00010   0.00000   0.00000   0.00000  -0.00024
    D6        3.14038  -0.00041   0.00000   0.00000   0.00000   3.14038
    D7       -3.14010   0.00021   0.00000   0.00000  -0.00000  -3.14010
    D8        0.00052  -0.00011   0.00000   0.00000   0.00000   0.00052
    D9       -0.00017   0.00014   0.00000   0.00000  -0.00000  -0.00017
   D10        3.14125   0.00037   0.00000   0.00000  -0.00000   3.14125
   D11        3.14047  -0.00012   0.00000   0.00000  -0.00000   3.14047
   D12       -0.00129   0.00011   0.00000   0.00000  -0.00000  -0.00129
   D13        0.00017  -0.00007   0.00000   0.00000   0.00000   0.00017
   D14       -3.14138  -0.00064   0.00000   0.00000   0.00000  -3.14138
   D15       -3.14044   0.00025   0.00000   0.00000   0.00000  -3.14044
   D16        0.00119  -0.00032   0.00000   0.00000   0.00000   0.00119
   D17        0.00010  -0.00031   0.00000   0.00000  -0.00000   0.00010
   D18        3.14139  -0.00009   0.00000   0.00000  -0.00000   3.14139
   D19       -3.14132  -0.00054   0.00000   0.00000  -0.00000  -3.14132
   D20       -0.00003  -0.00032   0.00000   0.00000  -0.00000  -0.00003
   D21       -0.00011   0.00027   0.00000   0.00000   0.00000  -0.00011
   D22       -3.14139   0.00005   0.00000   0.00000   0.00000  -3.14139
   D23        3.14145   0.00085   0.00000   0.00000   0.00000   3.14145
   D24        0.00017   0.00063   0.00000   0.00000   0.00000   0.00017
   D25       -1.57057   0.00051   0.00000   0.00000  -0.00000  -1.57057
   D26        2.59682   0.00137   0.00000   0.00000   0.00000   2.59682
   D27        0.59443   0.00039   0.00000   0.00000  -0.00000   0.59443
   D28        1.57071   0.00073   0.00000   0.00000  -0.00000   1.57071
   D29       -0.54508   0.00159   0.00000   0.00000   0.00000  -0.54508
   D30       -2.54747   0.00061   0.00000   0.00000  -0.00000  -2.54747
   D31       -0.97036  -0.00198   0.00000   0.00000   0.00000  -0.97036
   D32        1.13013   0.00449   0.00000   0.00000   0.00000   1.13013
   D33       -3.14159   0.00049   0.00000   0.00000   0.00000  -3.14159
   D34        1.13105  -0.00323   0.00000   0.00000   0.00000   1.13105
   D35       -3.05165   0.00324   0.00000   0.00000   0.00000  -3.05165
   D36       -1.04018  -0.00076   0.00000   0.00000   0.00000  -1.04018
   D37       -3.05514  -0.00413   0.00000   0.00000  -0.00000  -3.05514
   D38       -0.95466   0.00234   0.00000   0.00000  -0.00000  -0.95466
   D39        1.05681  -0.00166   0.00000   0.00000  -0.00000   1.05681
   D40        1.00944   0.00186   0.00000   0.00000  -0.00000   1.00944
   D41        3.14154   0.00213   0.00000   0.00000   0.00000   3.14154
   D42       -1.12291  -0.00118   0.00000   0.00000  -0.00000  -1.12291
   D43        3.10405   0.00175   0.00000   0.00000   0.00000   3.10405
   D44       -1.04703   0.00202   0.00000   0.00000   0.00000  -1.04703
   D45        0.97171  -0.00128   0.00000   0.00000   0.00000   0.97171
   D46       -1.08468   0.00101   0.00000   0.00000  -0.00000  -1.08468
   D47        1.04742   0.00128   0.00000   0.00000   0.00000   1.04742
   D48        3.06617  -0.00203   0.00000   0.00000  -0.00000   3.06617
   D49       -1.10771  -0.00218   0.00000   0.00000  -0.00000  -1.10771
   D50        3.09284  -0.00055   0.00000   0.00000  -0.00000   3.09284
   D51        1.04728  -0.00199   0.00000   0.00000  -0.00000   1.04728
   D52        0.99948  -0.00005   0.00000   0.00000   0.00000   0.99948
   D53       -1.08316   0.00158   0.00000   0.00000   0.00000  -1.08316
   D54       -3.12871   0.00013   0.00000   0.00000   0.00000  -3.12871
   D55        3.00967   0.00154   0.00000   0.00000  -0.00000   3.00967
   D56        0.92704   0.00317   0.00000   0.00000  -0.00000   0.92704
   D57       -1.11852   0.00173   0.00000   0.00000  -0.00000  -1.11852
   D58        3.10224  -0.00440   0.00000   0.00000  -0.00000   3.10224
   D59        0.96533  -0.00413   0.00000   0.00000   0.00000   0.96534
   D60       -1.04404  -0.00041   0.00000   0.00000  -0.00000  -1.04404
   D61       -1.05752  -0.00133   0.00000   0.00000  -0.00000  -1.05752
   D62        3.08876  -0.00105   0.00000   0.00000   0.00000   3.08876
   D63        1.07938   0.00266   0.00000   0.00000  -0.00000   1.07938
   D64        1.04719  -0.00204   0.00000   0.00000  -0.00000   1.04719
   D65       -1.08972  -0.00177   0.00000   0.00000   0.00000  -1.08972
   D66       -3.09910   0.00195   0.00000   0.00000  -0.00000  -3.09910
         Item               Value     Threshold  Converged?
 Maximum Force            0.027007     0.000450     NO 
 RMS     Force            0.005216     0.000300     NO 
 Maximum Displacement     0.305394     0.001800     NO 
 RMS     Displacement     0.063913     0.001200     NO 
 Predicted change in Energy=-3.725318D-03
 GradGradGradGradGradGradGradGradGradGradGradGradGradGradGradGradGradGrad

                          Input orientation:                          
 ---------------------------------------------------------------------
 Center     Atomic      Atomic             Coordinates (Angstroms)
 Number     Number       Type             X           Y           Z
 ---------------------------------------------------------------------
      1          6           0        2.779661   -1.712911   -6.215815
      2          6           0        2.056233   -0.543722   -5.968134
      3          6           0        2.853863   -2.708581   -5.238638
      4          6           0        1.407014   -0.367905   -4.745161
      5          6           0        2.206139   -2.537174   -4.013888
      6          6           0        1.481133   -1.364941   -3.766020
      7          6           0        2.872728   -1.341935   -0.996941
      8          6           0       -0.412901    0.572621   -0.139454
      9          6           0        0.775505   -1.176079   -2.433507
     10          6           0        1.653194   -0.490131   -1.357676
     11          7           0        0.830564   -0.283984   -0.079594
     12          1           0        3.282583   -1.848244   -7.167946
     13          1           0        1.998078    0.228936   -6.728166
     14          1           0        3.415116   -3.617241   -5.432042
     15          1           0        0.846837    0.545875   -4.562173
     16          1           0        2.269876   -3.317202   -3.260118
     17          1           0        2.571710   -2.345612   -0.675112
     18          1           0        3.535788   -1.439237   -1.855374
     19          1           0        3.446338   -0.897819   -0.173968
     20          1           0       -1.104298    0.174152   -0.872693
     21          1           0       -0.889973    0.578917    0.840835
     22          1           0       -0.122907    1.584490   -0.421589
     23          1           0        0.465642   -2.165574   -2.066362
     24          1           0       -0.151376   -0.615466   -2.574496
     25          1           0        1.975038    0.506747   -1.675972
     26          1           0        1.457830    0.123722    0.622521
     27          1           0        0.554084   -1.213901    0.257282
 ---------------------------------------------------------------------
                    Distance matrix (angstroms):
                    1          2          3          4          5
     1  C    0.000000
     2  C    1.397031   0.000000
     3  C    1.397047   2.419708   0.000000
     4  C    2.419922   1.395729   2.795649   0.000000
     5  C    2.420087   2.795603   1.396044   2.424683   0.000000
     6  C    2.794415   2.419596   2.420404   1.399390   1.400429
     7  C    5.232870   5.100643   4.456464   4.140797   3.312840
     8  C    7.234520   6.427780   6.887649   5.040756   5.616176
     9  C    4.314010   3.812312   3.812727   2.528970   2.529209
    10  C    5.134747   4.628351   4.628713   3.398617   3.398764
    11  N    6.595000   6.020351   6.048814   4.701793   4.737905
    12  H    1.085264   2.155287   2.155506   3.402800   3.403151
    13  H    2.155027   1.085372   3.402949   2.153575   3.880974
    14  H    2.155128   3.403010   1.085391   3.881039   2.153910
    15  H    3.401831   2.150950   3.882942   1.087326   3.413724
    16  H    3.401438   3.882162   2.150814   3.412951   1.086589
    17  H    5.580586   5.615033   4.586624   4.672594   3.364188
    18  H    4.433968   4.461594   3.677327   3.745704   2.762719
    19  H    6.132923   5.969098   5.411171   5.033434   4.355521
    20  H    6.869869   6.038859   6.560386   4.647206   5.308238
    21  H    8.277378   7.503499   7.860276   6.113589   6.547081
    22  H    7.271232   6.327883   7.106024   4.984554   5.942827
    23  H    4.772583   4.514887   4.007716   3.360619   2.638234
    24  H    4.801517   4.049131   4.528823   2.683590   3.364921
    25  H    5.117077   4.419585   4.878858   3.241541   3.845090
    26  H    7.203006   6.651337   6.657629   5.390388   5.397835
    27  H    6.863176   6.439052   6.142327   5.144670   4.766889
                    6          7          8          9         10
     6  C    0.000000
     7  C    3.099172   0.000000
     8  C    4.526974   3.898226   0.000000
     9  C    1.519595   2.547465   3.119766   0.000000
    10  C    2.568076   1.530675   2.623405   1.548636   0.000000
    11  N    3.896338   2.476131   1.511145   2.517891   1.533855
    12  H    3.879678   6.205290   8.301620   5.399273   6.185354
    13  H    3.403232   6.006629   7.024391   4.681116   5.429380
    14  H    3.404229   5.014112   7.760164   4.681669   5.429884
    15  H    2.165042   4.514304   4.598706   2.738874   3.462993
    16  H    2.165497   3.063834   5.662734   2.738766   3.462934
    17  H    3.421225   1.096154   4.208434   2.772384   2.179994
    18  H    2.806723   1.089046   4.752273   2.832428   2.166256
    19  H    4.121052   1.097065   4.130025   3.509458   2.186948
    20  H    4.174279   4.258016   1.083719   2.791581   2.877541
    21  H    5.533881   4.607061   1.090230   4.071258   3.527607
    22  H    4.738914   4.227153   1.089760   3.532096   2.887014
    23  H    2.135667   2.759729   3.461578   1.099959   2.172469
    24  H    2.155581   3.487355   2.722017   1.092371   2.180098
    25  H    2.848764   2.164384   2.840331   2.201055   1.094834
    26  H    4.634215   2.602450   2.069238   3.390333   2.082346
    27  H    4.131488   2.639239   2.069811   2.700149   2.083261
                   11         12         13         14         15
    11  N    0.000000
    12  H    7.661856   0.000000
    13  H    6.769763   2.481539   0.000000
    14  H    6.814632   2.481991   4.298955   0.000000
    15  H    4.558777   4.295895   2.473324   4.968326   0.000000
    16  H    4.624691   4.295874   4.967527   2.473631   4.317841
    17  H    2.763430   6.550542   6.602788   4.995673   5.142482
    18  H    3.436021   5.334306   5.375077   4.189369   4.300917
    19  H    2.688490   7.060159   6.806214   5.919761   5.300755
    20  H    2.140697   7.935050   6.626787   7.455698   4.190151
    21  H    2.133549   9.351037   8.108828   8.688528   5.675393
    22  H    2.125385   8.300263   6.790363   8.042403   4.377621
    23  H    2.760579   5.836267   5.460261   4.704735   3.704907
    24  H    2.701596   5.866140   4.752488   5.467731   2.509183
    25  H    2.117427   6.116979   5.059879   5.761004   3.099117
    26  H    1.025988   8.240737   7.371264   7.381294   5.237611
    27  H    1.026973   7.936063   7.277594   6.806611   5.139033
                   16         17         18         19         20
    16  H    0.000000
    17  H    2.778011   0.000000
    18  H    2.665069   1.773127   0.000000
    19  H    4.094118   1.764150   1.768689   0.000000
    20  H    5.410583   4.461085   5.009898   4.727116   0.000000
    21  H    6.479368   4.778516   5.561461   4.691926   1.773681
    22  H    6.148923   4.771890   4.958297   4.354617   1.776422
    23  H    2.450829   2.530516   3.161942   3.751387   3.060045
    24  H    3.692143   3.743829   3.845895   4.334259   2.104208
    25  H    4.149583   3.081183   2.500996   2.528546   3.199716
    26  H    5.251120   3.003696   3.591756   2.373206   2.966935
    27  H    4.442963   2.494182   3.661236   2.941262   2.440034
                   21         22         23         24         25
    21  H    0.000000
    22  H    1.786975   0.000000
    23  H    4.221577   4.136985   0.000000
    24  H    3.692771   3.078250   1.744060   0.000000
    25  H    3.814159   2.671400   3.093861   2.566776   0.000000
    26  H    2.401467   2.392224   3.668161   3.654703   2.386897
    27  H    2.374875   2.958070   2.512533   2.979054   2.952492
                   26         27
    26  H    0.000000
    27  H    1.655111   0.000000
 Stoichiometry    C10H16N(1+)
 Framework group  C1[X(C10H16N)]
 Deg. of freedom    75
 Full point group                 C1      NOp   1
 Largest Abelian subgroup         C1      NOp   1
 Largest concise Abelian subgroup C1      NOp   1
                         Standard orientation:                         
 ---------------------------------------------------------------------
 Center     Atomic      Atomic             Coordinates (Angstroms)
 Number     Number       Type             X           Y           Z
 ---------------------------------------------------------------------
      1          6           0       -3.509612   -0.151069    0.226138
      2          6           0       -2.748357   -1.283106    0.527269
      3          6           0       -2.906208    0.957191   -0.373364
      4          6           0       -1.384809   -1.309179    0.230427
      5          6           0       -1.542676    0.935720   -0.672123
      6          6           0       -0.779952   -0.199260   -0.370006
      7          6           0        1.326641    1.776186    0.754602
      8          6           0        3.632376   -1.203858   -0.244943
      9          6           0        0.704470   -0.224777   -0.694061
     10          6           0        1.600140    0.300239    0.455028
     11          7           0        3.075479    0.168153    0.056734
     12          1           0       -4.569997   -0.133374    0.456504
     13          1           0       -3.218009   -2.144194    0.992013
     14          1           0       -3.498367    1.836001   -0.608131
     15          1           0       -0.801125   -2.194966    0.469113
     16          1           0       -1.082430    1.802673   -1.138215
     17          1           0        1.444917    2.390040   -0.145813
     18          1           0        0.312707    1.906291    1.130143
     19          1           0        2.020346    2.170733    1.507369
     20          1           0        3.069059   -1.665938   -1.047191
     21          1           0        4.676034   -1.107758   -0.545185
     22          1           0        3.555930   -1.813958    0.654785
     23          1           0        0.870639    0.392468   -1.589218
     24          1           0        1.010761   -1.234498   -0.976769
     25          1           0        1.476865   -0.294656    1.365833
     26          1           0        3.632577    0.571455    0.818076
     27          1           0        3.219657    0.754101   -0.774259
 ---------------------------------------------------------------------
 Rotational constants (GHZ):           2.4696638           0.5525220           0.4903978
 Standard basis: 6-31G(d,p) (6D, 7F)
 There are   245 symmetry adapted cartesian basis functions of A   symmetry.
 There are   245 symmetry adapted basis functions of A   symmetry.
   245 basis functions,   420 primitive gaussians,   245 cartesian basis functions
    41 alpha electrons       41 beta electrons
       nuclear repulsion energy       603.0265829782 Hartrees.
 NAtoms=   27 NActive=   27 NUniq=   27 SFac= 1.00D+00 NAtFMM=   60 NAOKFM=F Big=F
 Integral buffers will be    131072 words long.
 Raffenetti 2 integral format.
 Two-electron integral symmetry is turned on.
 One-electron integrals computed using PRISM.
 NBasis=   245 RedAO= T EigKep=  4.74D-04  NBF=   245
 NBsUse=   245 1.00D-06 EigRej= -1.00D+00 NBFU=   245
 Initial guess from the checkpoint file:  "G1.chk"
 B after Tr=     0.000000   -0.000000    0.000000
         Rot=    0.999991    0.001823    0.000845   -0.003839 Ang=   0.50 deg.
 ExpMin= 1.61D-01 ExpMax= 4.17D+03 ExpMxC= 6.27D+02 IAcc=2 IRadAn=         4 AccDes= 0.00D+00
 Harris functional with IExCor=  402 and IRadAn=       4 diagonalized for initial guess.
 HarFok:  IExCor=  402 AccDes= 0.00D+00 IRadAn=         4 IDoV= 1 UseB2=F ITyADJ=14
 ICtDFT=  3500011 ScaDFX=  1.000000  1.000000  1.000000  1.000000
 FoFCou: FMM=F IPFlag=           0 FMFlag=      100000 FMFlg1=           0
         NFxFlg=           0 DoJE=T BraDBF=F KetDBF=T FulRan=T
         wScrn=  0.000000 ICntrl=       500 IOpCl=  0 I1Cent=   200000004 NGrid=           0
         NMat0=    1 NMatS0=      1 NMatT0=    0 NMatD0=    1 NMtDS0=    0 NMtDT0=    0
 Petite list used in FoFCou.
 Requested convergence on RMS density matrix=1.00D-08 within 128 cycles.
 Requested convergence on MAX density matrix=1.00D-06.
 Requested convergence on             energy=1.00D-06.
 No special actions if energy rises.
 Integral accuracy reduced to 1.0D-05 until final iterations.
 Initial convergence to 1.0D-05 achieved.  Increase integral accuracy.
 SCF Done:  E(RB3LYP) =  -445.249472481     A.U. after   11 cycles
            NFock= 11  Conv=0.59D-08     -V/T= 2.0101
 Calling FoFJK, ICntrl=      2127 FMM=F ISym2X=0 I1Cent= 0 IOpClX= 0 NMat=1 NMatS=1 NMatT=0.
 ***** Axes restored to original set *****
 -------------------------------------------------------------------
 Center     Atomic                   Forces (Hartrees/Bohr)
 Number     Number              X              Y              Z
 -------------------------------------------------------------------
      1        6          -0.000514744    0.000255565    0.000930556
      2        6           0.000777616   -0.000378701   -0.000239075
      3        6           0.000351973    0.000629808   -0.000306812
      4        6           0.002946664   -0.001291919   -0.002432233
      5        6           0.001539069    0.001232081   -0.004855716
      6        6          -0.002407728    0.003000839    0.005967739
      7        6          -0.001258963    0.003607891    0.011111179
      8        6           0.002794411    0.003845928   -0.001653832
      9        6          -0.002140282   -0.001448841    0.002254245
     10        6           0.002237268   -0.009668495   -0.011445139
     11        7          -0.004710284    0.001594732    0.002604985
     12        1          -0.000144966   -0.000081852   -0.000011802
     13        1          -0.000272855    0.000037070    0.000034411
     14        1          -0.000251113   -0.000196234    0.000106095
     15        1          -0.000709652   -0.000681753    0.000445858
     16        1          -0.001365532   -0.000209627   -0.000232790
     17        1           0.000066780   -0.000546027   -0.002009700
     18        1          -0.000966447    0.000504749   -0.001008412
     19        1           0.001320202    0.001057775   -0.001681390
     20        1          -0.000657020   -0.002537397   -0.001702633
     21        1           0.002055979   -0.000461213    0.001018805
     22        1           0.000461466    0.000211328    0.000055898
     23        1           0.001692073    0.000974513    0.002825190
     24        1           0.000504838    0.002843581   -0.003287666
     25        1          -0.003344390    0.000560818    0.000169398
     26        1          -0.000956594   -0.003644984    0.001525436
     27        1           0.002952232    0.000790366    0.001817406
 -------------------------------------------------------------------
 Cartesian Forces:  Max     0.011445139 RMS     0.002801341

 GradGradGradGradGradGradGradGradGradGradGradGradGradGradGradGradGradGrad
 Berny optimization.
 Using GEDIIS/GDIIS optimizer.
[...]
 Rotational constants (GHZ):           2.4718687           0.5548774           0.4921686

 **********************************************************************

            Population analysis using the SCF density.

 **********************************************************************

 Orbital symmetries:
       Occupied  (A) (A) (A) (A) (A) (A) (A) (A) (A) (A) (A) (A)
                 (A) (A) (A) (A) (A) (A) (A) (A) (A) (A) (A) (A)
                 (A) (A) (A) (A) (A) (A) (A) (A) (A) (A) (A) (A)
                 (A) (A) (A) (A) (A)
       Virtual   (A) (A) (A) (A) (A) (A) (A) (A) (A) (A) (A) (A)
                 (A) (A) (A) (A) (A) (A) (A) (A) (A) (A) (A) (A)
                 (A) (A) (A) (A) (A) (A) (A) (A) (A) (A) (A) (A)
                 (A) (A) (A) (A) (A) (A) (A) (A) (A) (A) (A) (A)
                 (A) (A) (A) (A) (A) (A) (A) (A) (A) (A) (A) (A)
                 (A) (A) (A) (A) (A) (A) (A) (A) (A) (A) (A) (A)
                 (A) (A) (A) (A) (A) (A) (A) (A) (A) (A) (A) (A)
                 (A) (A) (A) (A) (A) (A) (A) (A) (A) (A) (A) (A)
                 (A) (A) (A) (A) (A) (A) (A) (A) (A) (A) (A) (A)
                 (A) (A) (A) (A) (A) (A) (A) (A) (A) (A) (A) (A)
                 (A) (A) (A) (A) (A) (A) (A) (A) (A) (A) (A) (A)
                 (A) (A) (A) (A) (A) (A) (A) (A) (A) (A) (A) (A)
                 (A) (A) (A) (A) (A) (A) (A) (A) (A) (A) (A) (A)
                 (A) (A) (A) (A) (A) (A) (A) (A) (A) (A) (A) (A)
                 (A) (A) (A) (A) (A) (A) (A) (A) (A) (A) (A) (A)
                 (A) (A) (A) (A) (A) (A) (A) (A) (A) (A) (A) (A)
                 (A) (A) (A) (A) (A) (A) (A) (A) (A) (A) (A) (A)
 The electronic state is 1-A.
 Alpha  occ. eigenvalues --  -14.63881 -10.41873 -10.41614 -10.34752 -10.34174
 Alpha  occ. eigenvalues --  -10.31773 -10.30127 -10.30125 -10.29480 -10.29451
 Alpha  occ. eigenvalues --  -10.29223  -1.18360  -0.98125  -0.95195  -0.90159
 Alpha  occ. eigenvalues --   -0.87118  -0.85242  -0.83122  -0.79011  -0.76170
 Alpha  occ. eigenvalues --   -0.71441  -0.69278  -0.68266  -0.67152  -0.62349
 Alpha  occ. eigenvalues --   -0.61743  -0.59444  -0.58706  -0.57491  -0.56424
 Alpha  occ. eigenvalues --   -0.54820  -0.54135  -0.52796  -0.52173  -0.51931
 Alpha  occ. eigenvalues --   -0.50420  -0.46633  -0.45125  -0.44882  -0.35772
 Alpha  occ. eigenvalues --   -0.35600
 Alpha virt. eigenvalues --   -0.13931  -0.11873  -0.11027  -0.08658  -0.06545
 Alpha virt. eigenvalues --   -0.05856  -0.04374  -0.02607  -0.02286  -0.01135
 Alpha virt. eigenvalues --    0.00226   0.00567   0.01063   0.02073   0.03058
 Alpha virt. eigenvalues --    0.04342   0.04930   0.06132   0.07375   0.07877
 Alpha virt. eigenvalues --    0.09357   0.09539   0.10516   0.12574   0.20086
 Alpha virt. eigenvalues --    0.20872   0.21396   0.23327   0.29056   0.30586
 Alpha virt. eigenvalues --    0.32576   0.34211   0.36902   0.39101   0.40264
 Alpha virt. eigenvalues --    0.40900   0.43299   0.43589   0.44373   0.45143
 Alpha virt. eigenvalues --    0.46518   0.48839   0.48873   0.49692   0.50554
 Alpha virt. eigenvalues --    0.51352   0.51825   0.52619   0.54605   0.55399
 Alpha virt. eigenvalues --    0.57234   0.58306   0.61815   0.62065   0.64457
 Alpha virt. eigenvalues --    0.65480   0.67513   0.68106   0.69427   0.69921
 Alpha virt. eigenvalues --    0.70349   0.71310   0.72732   0.73186   0.74287
 Alpha virt. eigenvalues --    0.74480   0.76104   0.76989   0.77720   0.78825
 Alpha virt. eigenvalues --    0.80046   0.82284   0.83997   0.85373   0.87276
 Alpha virt. eigenvalues --    0.88450   0.91274   0.93826   0.99975   1.02113
 Alpha virt. eigenvalues --    1.05638   1.05888   1.06984   1.11048   1.15074
 Alpha virt. eigenvalues --    1.17643   1.21142   1.22375   1.25025   1.28992
 Alpha virt. eigenvalues --    1.29388   1.30813   1.31467   1.32083   1.34393
 Alpha virt. eigenvalues --    1.39482   1.42239   1.46433   1.47950   1.53196
 Alpha virt. eigenvalues --    1.57562   1.59730   1.63458   1.65280   1.67584
 Alpha virt. eigenvalues --    1.68157   1.70418   1.73815   1.74494   1.76273
 Alpha virt. eigenvalues --    1.76973   1.77846   1.80645   1.81442   1.82955
 Alpha virt. eigenvalues --    1.84237   1.85433   1.86180   1.86459   1.86704
 Alpha virt. eigenvalues --    1.89081   1.89901   1.91236   1.94000   1.96005
 Alpha virt. eigenvalues --    1.97238   1.98765   2.00231   2.04678   2.05352
 Alpha virt. eigenvalues --    2.06830   2.08786   2.12942   2.14607   2.15919
 Alpha virt. eigenvalues --    2.18636   2.19197   2.20527   2.21545   2.23259
 Alpha virt. eigenvalues --    2.26779   2.27196   2.28480   2.30780   2.32727
 Alpha virt. eigenvalues --    2.33755   2.34889   2.36764   2.39729   2.40840
 Alpha virt. eigenvalues --    2.41743   2.42108   2.46147   2.46790   2.48948
 Alpha virt. eigenvalues --    2.49252   2.52289   2.54118   2.54840   2.56500
 Alpha virt. eigenvalues --    2.59194   2.60991   2.62543   2.64049   2.65059
 Alpha virt. eigenvalues --    2.68285   2.69932   2.72040   2.72329   2.74050
 Alpha virt. eigenvalues --    2.75103   2.76300   2.78715   2.92663   2.95047
 Alpha virt. eigenvalues --    2.99868   3.03958   3.08376   3.09118   3.11390
 Alpha virt. eigenvalues --    3.13917   3.14320   3.15303   3.23304   3.24387
 Alpha virt. eigenvalues --    3.25208   3.28261   3.32647   3.34007   3.36193
 Alpha virt. eigenvalues --    3.38501   3.40217   3.79161   3.94843   4.03423
 Alpha virt. eigenvalues --    4.05941   4.09429   4.19479   4.27663   4.33330
 Alpha virt. eigenvalues --    4.35336   4.40942   4.54962   4.73022
          Condensed to atoms (all electrons):
               1          2          3          4          5          6
     1  C    4.787639   0.547647   0.547607  -0.041582  -0.041622  -0.034257
     2  C    0.547647   4.798628  -0.028221   0.527701  -0.045384  -0.025268
     3  C    0.547607  -0.028221   4.802754  -0.045026   0.527164  -0.027300
     4  C   -0.041582   0.527701  -0.045026   4.874409  -0.033836   0.547666
     5  C   -0.041622  -0.045384   0.527164  -0.033836   4.884856   0.540507
     6  C   -0.034257  -0.025268  -0.027300   0.547666   0.540507   4.733496
     7  C    0.000018   0.000007  -0.000263  -0.000014  -0.002145  -0.004504
     8  C    0.000000   0.000000  -0.000000  -0.000008  -0.000002   0.000112
     9  C    0.000338   0.006702   0.006826  -0.058297  -0.056080   0.343617
    10  C    0.000009   0.000068   0.000026  -0.003397  -0.005532  -0.042686
    11  N   -0.000000   0.000001   0.000001   0.000048  -0.000013   0.002153
    12  H    0.374267  -0.038269  -0.038491   0.004645   0.004671   0.000711
    13  H   -0.036946   0.370157   0.004227  -0.035791   0.000929   0.003855
    14  H   -0.036709   0.004206   0.370230   0.000932  -0.035950   0.003828
    15  H    0.004852  -0.035657   0.000303   0.370077   0.005057  -0.052921
    16  H    0.004718   0.000325  -0.035250   0.004933   0.370570  -0.051894
    17  H    0.000000  -0.000000   0.000015   0.000004   0.000321  -0.001085
    18  H   -0.000041  -0.000093   0.000285   0.000308   0.005925   0.006664
    19  H   -0.000000  -0.000001   0.000003  -0.000005   0.000136   0.000278
    20  H    0.000000  -0.000000  -0.000000  -0.000002  -0.000000   0.000118
    21  H   -0.000000   0.000000  -0.000000   0.000000   0.000000  -0.000001
    22  H   -0.000000  -0.000000  -0.000000   0.000001   0.000000  -0.000029
    23  H    0.000019  -0.000208   0.000108   0.002920  -0.003374  -0.025653
    24  H    0.000019   0.000099  -0.000189  -0.003573   0.002888  -0.019676
    25  H   -0.000003  -0.000094  -0.000009   0.002855   0.000093  -0.000764
    26  H    0.000000  -0.000000  -0.000000   0.000000  -0.000001  -0.000039
    27  H   -0.000000  -0.000000   0.000000   0.000002   0.000002  -0.000105
               7          8          9         10         11         12
     1  C    0.000018   0.000000   0.000338   0.000009  -0.000000   0.374267
     2  C    0.000007   0.000000   0.006702   0.000068   0.000001  -0.038269
     3  C   -0.000263  -0.000000   0.006826   0.000026   0.000001  -0.038491
     4  C   -0.000014  -0.000008  -0.058297  -0.003397   0.000048   0.004645
     5  C   -0.002145  -0.000002  -0.056080  -0.005532  -0.000013   0.004671
     6  C   -0.004504   0.000112   0.343617  -0.042686   0.002153   0.000711
     7  C    4.995327   0.004040  -0.055586   0.360372  -0.048139  -0.000000
     8  C    0.004040   4.913710  -0.003221  -0.031067   0.219575   0.000000
     9  C   -0.055586  -0.003221   5.120171   0.325474  -0.041548   0.000006
    10  C    0.360372  -0.031067   0.325474   5.069538   0.151342   0.000000
    11  N   -0.048139   0.219575  -0.041548   0.151342   6.676134   0.000000
    12  H   -0.000000   0.000000   0.000006   0.000000   0.000000   0.583122
    13  H    0.000000  -0.000000  -0.000195  -0.000002  -0.000000  -0.005510
    14  H    0.000001   0.000000  -0.000192  -0.000002  -0.000000  -0.005529
    15  H    0.000042   0.000006  -0.009833   0.000079  -0.000041  -0.000177
    16  H    0.000346   0.000000  -0.009607  -0.000365  -0.000032  -0.000175
    17  H    0.383655  -0.000032  -0.005730  -0.034364  -0.004824  -0.000000
    18  H    0.384084  -0.000089  -0.004348  -0.023396   0.003388   0.000000
    19  H    0.374622  -0.000003   0.004813  -0.032576  -0.003835  -0.000000
    20  H    0.000077   0.395594   0.003685  -0.005318  -0.029071  -0.000000
    21  H   -0.000153   0.388802   0.000143   0.002967  -0.026447  -0.000000
    22  H   -0.000000   0.393578  -0.000754  -0.001307  -0.030272  -0.000000
    23  H   -0.008478  -0.000474   0.369799  -0.041280  -0.003578  -0.000000
    24  H    0.005059   0.000357   0.368046  -0.040224  -0.003733  -0.000000
    25  H   -0.039208  -0.002112  -0.036422   0.392236  -0.038749  -0.000000
    26  H   -0.000756  -0.024407   0.004246  -0.021178   0.333980  -0.000000
    27  H   -0.001945  -0.025828  -0.003170  -0.022581   0.328020   0.000000
              13         14         15         16         17         18
     1  C   -0.036946  -0.036709   0.004852   0.004718   0.000000  -0.000041
     2  C    0.370157   0.004206  -0.035657   0.000325  -0.000000  -0.000093
     3  C    0.004227   0.370230   0.000303  -0.035250   0.000015   0.000285
     4  C   -0.035791   0.000932   0.370077   0.004933   0.000004   0.000308
     5  C    0.000929  -0.035950   0.005057   0.370570   0.000321   0.005925
     6  C    0.003855   0.003828  -0.052921  -0.051894  -0.001085   0.006664
     7  C    0.000000   0.000001   0.000042   0.000346   0.383655   0.384084
     8  C   -0.000000   0.000000   0.000006   0.000000  -0.000032  -0.000089
     9  C   -0.000195  -0.000192  -0.009833  -0.009607  -0.005730  -0.004348
    10  C   -0.000002  -0.000002   0.000079  -0.000365  -0.034364  -0.023396
    11  N   -0.000000  -0.000000  -0.000041  -0.000032  -0.004824   0.003388
    12  H   -0.005510  -0.005529  -0.000177  -0.000175  -0.000000   0.000000
    13  H    0.587654  -0.000175  -0.005784   0.000016   0.000000  -0.000000
    14  H   -0.000175   0.587266   0.000016  -0.005683  -0.000002   0.000003
    15  H   -0.005784   0.000016   0.631410  -0.000161  -0.000001   0.000004
    16  H    0.000016  -0.005683  -0.000161   0.625027   0.000826   0.000072
    17  H    0.000000  -0.000002  -0.000001   0.000826   0.565345  -0.020552
    18  H   -0.000000   0.000003   0.000004   0.000072  -0.020552   0.477449
    19  H    0.000000   0.000000   0.000000   0.000035  -0.032746  -0.017922
    20  H    0.000000   0.000000   0.000017   0.000001   0.000001   0.000001
    21  H   -0.000000   0.000000   0.000000  -0.000000   0.000004   0.000002
    22  H    0.000000   0.000000   0.000008  -0.000000   0.000004   0.000002
    23  H    0.000003  -0.000009   0.000092   0.004836   0.004560   0.000125
    24  H   -0.000008   0.000003   0.004467   0.000065   0.000028   0.000080
    25  H    0.000002   0.000000   0.000670   0.000022   0.004692  -0.002323
    26  H    0.000000   0.000000   0.000002   0.000002  -0.000588  -0.000136
    27  H    0.000000  -0.000000   0.000000  -0.000000   0.005363  -0.000078
              19         20         21         22         23         24
     1  C   -0.000000   0.000000  -0.000000  -0.000000   0.000019   0.000019
     2  C   -0.000001  -0.000000   0.000000  -0.000000  -0.000208   0.000099
     3  C    0.000003  -0.000000  -0.000000  -0.000000   0.000108  -0.000189
     4  C   -0.000005  -0.000002   0.000000   0.000001   0.002920  -0.003573
     5  C    0.000136  -0.000000   0.000000   0.000000  -0.003374   0.002888
     6  C    0.000278   0.000118  -0.000001  -0.000029  -0.025653  -0.019676
     7  C    0.374622   0.000077  -0.000153  -0.000000  -0.008478   0.005059
     8  C   -0.000003   0.395594   0.388802   0.393578  -0.000474   0.000357
     9  C    0.004813   0.003685   0.000143  -0.000754   0.369799   0.368046
    10  C   -0.032576  -0.005318   0.002967  -0.001307  -0.041280  -0.040224
    11  N   -0.003835  -0.029071  -0.026447  -0.030272  -0.003578  -0.003733
    12  H   -0.000000  -0.000000  -0.000000  -0.000000  -0.000000  -0.000000
    13  H    0.000000   0.000000  -0.000000   0.000000   0.000003  -0.000008
    14  H    0.000000   0.000000   0.000000   0.000000  -0.000009   0.000003
    15  H    0.000000   0.000017   0.000000   0.000008   0.000092   0.004467
    16  H    0.000035   0.000001  -0.000000  -0.000000   0.004836   0.000065
    17  H   -0.032746   0.000001   0.000004   0.000004   0.004560   0.000028
    18  H   -0.017922   0.000001   0.000002   0.000002   0.000125   0.000080
    19  H    0.574212  -0.000004  -0.000003  -0.000004   0.000059  -0.000161
    20  H   -0.000004   0.475867  -0.022131  -0.022164   0.000379   0.004050
    21  H   -0.000003  -0.022131   0.494827  -0.022376  -0.000041   0.000041
    22  H   -0.000004  -0.022164  -0.022376   0.483975   0.000061   0.000073
    23  H    0.000059   0.000379  -0.000041   0.000061   0.598440  -0.035151
    24  H   -0.000161   0.004050   0.000041   0.000073  -0.035151   0.591870
    25  H   -0.003456  -0.000196  -0.000043   0.003585   0.005101  -0.003296
    26  H    0.005922   0.003313  -0.002388  -0.003352  -0.000009  -0.000152
    27  H   -0.000367  -0.002544  -0.002937   0.003755   0.005630  -0.000328
              25         26         27
     1  C   -0.000003   0.000000  -0.000000
     2  C   -0.000094  -0.000000  -0.000000
     3  C   -0.000009  -0.000000   0.000000
     4  C    0.002855   0.000000   0.000002
     5  C    0.000093  -0.000001   0.000002
     6  C   -0.000764  -0.000039  -0.000105
     7  C   -0.039208  -0.000756  -0.001945
     8  C   -0.002112  -0.024407  -0.025828
     9  C   -0.036422   0.004246  -0.003170
    10  C    0.392236  -0.021178  -0.022581
    11  N   -0.038749   0.333980   0.328020
    12  H   -0.000000  -0.000000   0.000000
    13  H    0.000002   0.000000   0.000000
    14  H    0.000000   0.000000  -0.000000
    15  H    0.000670   0.000002   0.000000
    16  H    0.000022   0.000002  -0.000000
    17  H    0.004692  -0.000588   0.005363
    18  H   -0.002323  -0.000136  -0.000078
    19  H   -0.003456   0.005922  -0.000367
    20  H   -0.000196   0.003313  -0.002544
    21  H   -0.000043  -0.002388  -0.002937
    22  H    0.003585  -0.003352   0.003755
    23  H    0.005101  -0.000009   0.005630
    24  H   -0.003296  -0.000152  -0.000328
    25  H    0.544934  -0.003011   0.005047
    26  H   -0.003011   0.375999  -0.018684
    27  H    0.005047  -0.018684   0.383622
 Mulliken charges:
               1
     1  C   -0.075973
     2  C   -0.082344
     3  C   -0.084800
     4  C   -0.114970
     5  C   -0.119177
     6  C    0.103177
     7  C   -0.346460
     8  C   -0.228533
     9  C   -0.268882
    10  C    0.003164
    11  N   -0.484359
    12  H    0.120728
    13  H    0.117568
    14  H    0.117767
    15  H    0.087471
    16  H    0.091373
    17  H    0.135104
    18  H    0.190588
    19  H    0.131000
    20  H    0.198327
    21  H    0.189734
    22  H    0.195217
    23  H    0.126123
    24  H    0.129346
    25  H    0.170451
    26  H    0.351236
    27  H    0.347126
 Sum of Mulliken charges =   1.00000
 Mulliken charges with hydrogens summed into heavy atoms:
               1
     1  C    0.044755
     2  C    0.035224
     3  C    0.032967
     4  C   -0.027499
     5  C   -0.027804
     6  C    0.103177
     7  C    0.110232
     8  C    0.354744
     9  C   -0.013414
    10  C    0.173615
    11  N    0.214002
 Electronic spatial extent (au):  <R**2>=           2325.9340
 Charge=              1.0000 electrons
 Dipole moment (field-independent basis, Debye):
    X=             10.8560    Y=              0.3983    Z=              0.4547  Tot=             10.8728
 Quadrupole moment (field-independent basis, Debye-Ang):
   XX=            -12.0163   YY=            -55.9547   ZZ=            -63.4383
   XY=             -0.9634   XZ=             -1.2951   YZ=             -1.6399
 Traceless Quadrupole moment (field-independent basis, Debye-Ang):
   XX=             31.7868   YY=            -12.1516   ZZ=            -19.6352
   XY=             -0.9634   XZ=             -1.2951   YZ=             -1.6399
 Octapole moment (field-independent basis, Debye-Ang**2):
  XXX=            133.1055  YYY=             -1.4346  ZZZ=              1.9624  XYY=             14.3817
  XXY=             -4.2510  XXZ=              7.0628  XZZ=             21.6467  YZZ=              2.0356
  YYZ=              1.6492  XYZ=              8.4919
 Hexadecapole moment (field-independent basis, Debye-Ang**3):
 XXXX=          -1537.1213 YYYY=           -497.9573 ZZZZ=           -200.9264 XXXY=            -35.1180
 XXXZ=            -32.0866 YYYX=             -9.0246 YYYZ=             -9.2980 ZZZX=              1.3135
 ZZZY=              1.5614 XXYY=           -400.0166 XXZZ=           -401.6564 YYZZ=           -112.3813
 XXYZ=            -12.7182 YYXZ=             -4.3544 ZZXY=              2.5034
 N-N= 6.036688722767D+02 E-N=-2.224417543096D+03  KE= 4.408078528701D+02
 1\1\GINC-CPU191\FOpt\RB3LYP\6-31G(d,p)\C10H16N1(1+)\FEBRERMA\05-Feb-20
 24\0\\# B3LYP/6-31G** opt=Modredundant\\G1\\1,1\C,2.7765501178,-1.7084
 196725,-6.2105875208\C,2.0524391116,-0.5404718575,-5.9612338233\C,2.85
 24666482,-2.7046767915,-5.2347380132\C,1.4041986232,-0.3665036635,-4.7
 377734104\C,2.2057081942,-2.5350712208,-4.0095208454\C,1.4800173884,-1
 .3640634794,-3.7599957453\C,2.8710681326,-1.3436875283,-0.9999983884\C
 ,-0.405207652,0.5724155681,-0.1592796886\C,0.7749108207,-1.177030565,-
 2.4259667478\C,1.6524037812,-0.4935561424,-1.356409967\N,0.8300018588,
 -0.2869761537,-0.0705234546\H,3.2787763457,-1.8423460491,-7.1632063314
 \H,1.9929287284,0.2328963079,-6.7204766849\H,3.414413873,-3.6126475355
 ,-5.42948678\H,0.8434213695,0.5464155106,-4.5534629889\H,2.2707741908,
 -3.3156451021,-3.2566663163\H,2.5725225525,-2.3475562058,-0.6773963174
 \H,3.5227843554,-1.4326539996,-1.8682745838\H,3.4491816856,-0.90256912
 11,-0.1790575937\H,-1.0808198154,0.1574396625,-0.9026289556\H,-0.88738
 52613,0.5846844403,0.8183838744\H,-0.1062845841,1.5797437167,-0.449132
 7112\H,0.4661134348,-2.16617996,-2.0590426705\H,-0.1544563051,-0.61617
 14088,-2.5650287508\H,1.9728568028,0.5027044016,-1.675204921\H,1.45270
 36996,0.1203620964,0.6340475838\H,0.5514119031,-1.2126352474,0.2724617
 521\\Version=ES64L-G16RevA.03\State=1-A\HF=-445.2496883\RMSD=4.083e-09
 \RMSF=2.446e-03\Dipole=-1.0856486,1.1574318,3.9724413\Quadrupole=-9.22
 79507,-8.353506,17.5814567,-5.63421,-10.6519722,7.2328113\PG=C01 [X(C1
 0H16N1)]\\@


 CHINESE FORTUNE COOKIE OF JAN 1 1967 SAY....
 ALL THINGS ARE DIFFICULT BEFORE THEY ARE EASY.
 WE LEARN SO LITTLE AND FORGET SO MUCH.
 YOU WILL OVERCOME OBSTACLES TO ACHIEVE SUCCESS.
 AH SO.
 Job cpu time:       0 days  0 hours 19 minutes 33.6 seconds.
 Elapsed time:       0 days  0 hours  2 minutes 28.9 seconds.
 File lengths (MBytes):  RWF=     44 Int=      0 D2E=      0 Chk=      6 Scr=      1
 Normal termination of Gaussian 16 at Mon Feb  5 15:24:51 2024.
