 Entering Gaussian System, Link 0=g16
 Initial command:
 /opt/ebsofts/Gaussian/g16/l1.exe "/scratch/Gau-2460876.inp" -scrdir="/scratch/"
 Entering Link 1 = /opt/ebsofts/Gaussian/g16/l1.exe PID=   2460883.
  
 Copyright (c) 1988,1990,1992,1993,1995,1998,2003,2009,2016,
            Gaussian, Inc.  All Rights Reserved.
  
 This is part of the Gaussian(R) 16 program.  It is based on
 the Gaussian(R) 09 system (copyright 2009, Gaussian, Inc.),
 the Gaussian(R) 03 system (copyright 2003, Gaussian, Inc.),
 the Gaussian(R) 98 system (copyright 1998, Gaussian, Inc.),
 the Gaussian(R) 94 system (copyright 1995, Gaussian, Inc.),
 the Gaussian 92(TM) system (copyright 1992, Gaussian, Inc.),
 the Gaussian 90(TM) system (copyright 1990, Gaussian, Inc.),
 the Gaussian 88(TM) system (copyright 1988, Gaussian, Inc.),
 the Gaussian 86(TM) system (copyright 1986, Carnegie Mellon
 University), and the Gaussian 82(TM) system (copyright 1983,
 Carnegie Mellon University). Gaussian is a federally registered
 trademark of Gaussian, Inc.
  
 This software contains proprietary and confidential information,
 including trade secrets, belonging to Gaussian, Inc.
  
 This software is provided under written license and may be
 used, copied, transmitted, or stored only in accord with that
 written license.
  
 The following legend is applicable only to US Government
 contracts under FAR:
  
                    RESTRICTED RIGHTS LEGEND
  
 Use, reproduction and disclosure by the US Government is
 subject to restrictions as set forth in subparagraphs (a)
 and (c) of the Commercial Computer Software - Restricted
 Rights clause in FAR 52.227-19.
  
 Gaussian, Inc.
 340 Quinnipiac St., Bldg. 40, Wallingford CT 06492
  
  
 ---------------------------------------------------------------
 Warning -- This program may not be used in any manner that
 competes with the business of Gaussian, Inc. or will provide
 assistance to any competitor of Gaussian, Inc.  The licensee
 of this program is prohibited from giving any competitor of
 Gaussian, Inc. access to this program.  By using this program,
 the user acknowledges that Gaussian, Inc. is engaged in the
 business of creating and licensing software in the field of
 computational chemistry and represents and warrants to the
 licensee that it is not a competitor of Gaussian, Inc. and that
 it will not use this program in any manner prohibited above.
 ---------------------------------------------------------------
  

 Cite this work as:
 Gaussian 16, Revision A.03,
 M. J. Frisch, G. W. Trucks, H. B. Schlegel, G. E. Scuseria, 
 M. A. Robb, J. R. Cheeseman, G. Scalmani, V. Barone, 
 G. A. Petersson, H. Nakatsuji, X. Li, M. Caricato, A. V. Marenich, 
 J. Bloino, B. G. Janesko, R. Gomperts, B. Mennucci, H. P. Hratchian, 
 J. V. Ortiz, A. F. Izmaylov, J. L. Sonnenberg, D. Williams-Young, 
 F. Ding, F. Lipparini, F. Egidi, J. Goings, B. Peng, A. Petrone, 
 T. Henderson, D. Ranasinghe, V. G. Zakrzewski, J. Gao, N. Rega, 
 G. Zheng, W. Liang, M. Hada, M. Ehara, K. Toyota, R. Fukuda, 
 J. Hasegawa, M. Ishida, T. Nakajima, Y. Honda, O. Kitao, H. Nakai, 
 T. Vreven, K. Throssell, J. A. Montgomery, Jr., J. E. Peralta, 
 F. Ogliaro, M. J. Bearpark, J. J. Heyd, E. N. Brothers, K. N. Kudin, 
 V. N. Staroverov, T. A. Keith, R. Kobayashi, J. Normand, 
 K. Raghavachari, A. P. Rendell, J. C. Burant, S. S. Iyengar, 
 J. Tomasi, M. Cossi, J. M. Millam, M. Klene, C. Adamo, R. Cammi, 
 J. W. Ochterski, R. L. Martin, K. Morokuma, O. Farkas, 
 J. B. Foresman, and D. J. Fox, Gaussian, Inc., Wallingford CT, 2016.
 
 ******************************************
 Gaussian 16:  ES64L-G16RevA.03 25-Dec-2016
                 5-Feb-2024 
 ******************************************
 %Chk=G1.chk
 %nprocshared=8
 Will use up to    8 processors via shared memory.
 %mem=1GB
 ----------------------------------------------------------------------
 # HF/6-31G** SCRF=(Solvent=Water) POP=MK iop(6/50=1) geom=allcheck gue
 ss=read
 ----------------------------------------------------------------------
 1/29=7,38=1,172=1/1;
 2/12=2,40=1/2;
 3/5=1,6=6,7=101,11=9,14=-4,25=1,30=1,70=2201,72=1,116=-2/1,2,3;
 4/5=1/1;
 5/5=2,38=6,53=1/2;
 6/7=2,8=2,9=2,10=2,15=8,20=1,28=1,50=1/1,2;
 99/5=1,9=1/99;
 Structure from the checkpoint file:  "G1.chk"
 --
 G1
 --
 Charge =  1 Multiplicity = 1
 Redundant internal coordinates found in file.  (old form).
 C,0,2.7765501178,-1.7084196725,-6.2105875208
 C,0,2.0524391116,-0.5404718575,-5.9612338233
 C,0,2.8524666482,-2.7046767915,-5.2347380132
 C,0,1.4041986232,-0.3665036635,-4.7377734104
 C,0,2.2057081942,-2.5350712208,-4.0095208454
 C,0,1.4800173884,-1.3640634794,-3.7599957453
 C,0,2.8710681326,-1.3436875283,-0.9999983884
 C,0,-0.405207652,0.5724155681,-0.1592796886
 C,0,0.7749108207,-1.177030565,-2.4259667478
 C,0,1.6524037812,-0.4935561424,-1.356409967
 N,0,0.8300018588,-0.2869761537,-0.0705234546
 H,0,3.2787763457,-1.8423460491,-7.1632063314
 H,0,1.9929287284,0.2328963079,-6.7204766849
 H,0,3.414413873,-3.6126475355,-5.42948678
 H,0,0.8434213695,0.5464155106,-4.5534629889
 H,0,2.2707741908,-3.3156451021,-3.2566663163
 H,0,2.5725225525,-2.3475562058,-0.6773963174
 H,0,3.5227843554,-1.4326539996,-1.8682745838
 H,0,3.4491816856,-0.9025691211,-0.1790575937
 H,0,-1.0808198154,0.1574396625,-0.9026289556
 H,0,-0.8873852613,0.5846844403,0.8183838744
 H,0,-0.1062845841,1.5797437167,-0.4491327112
 H,0,0.4661134348,-2.16617996,-2.0590426705
 H,0,-0.1544563051,-0.6161714088,-2.5650287508
 H,0,1.9728568028,0.5027044016,-1.675204921
 H,0,1.4527036996,0.1203620964,0.6340475838
 H,0,0.5514119031,-1.2126352474,0.2724617521
 Recover connectivity data from disk.
                           ----------------------------
                           !    Current Parameters    !
                           ! (Angstroms and Degrees)  !
 --------------------------                            --------------------------
 ! Name  Definition              Value                                          !
 --------------------------------------------------------------------------------
 ! R1    R(1,2)                  1.3966                                         !
 ! R2    R(1,3)                  1.3966                                         !
 ! R3    R(1,12)                 1.0852                                         !
 ! R4    R(2,4)                  1.3955                                         !
 ! R5    R(2,13)                 1.0854                                         !
 ! R6    R(3,5)                  1.3958                                         !
 ! R7    R(3,14)                 1.0854                                         !
 ! R8    R(4,6)                  1.3989                                         !
 ! R9    R(4,15)                 1.0871                                         !
 ! R10   R(5,6)                  1.4001                                         !
 ! R11   R(5,16)                 1.0864                                         !
 ! R12   R(6,9)                  1.5205                                         !
 ! R13   R(7,10)                 1.528                                          !
 ! R14   R(7,17)                 1.0959                                         !
 ! R15   R(7,18)                 1.0893                                         !
 ! R16   R(7,19)                 1.0967                                         !
 ! R17   R(8,11)                 1.5074                                         !
 ! R18   R(8,20)                 1.0868                                         !
 ! R19   R(8,21)                 1.0902                                         !
 ! R20   R(8,22)                 1.09                                           !
 ! R21   R(9,10)                 1.5431                                         !
 ! R22   R(9,23)                 1.0993                                         !
 ! R23   R(9,24)                 1.0944                                         !
 ! R24   R(10,11)                1.5403                                         !
 ! R25   R(10,25)                1.094                                          !
 ! R26   R(11,26)                1.0247                                         !
 ! R27   R(11,27)                1.0257                                         !
 ! A1    A(2,1,3)              119.9973                                         !
 ! A2    A(2,1,12)             119.9917                                         !
 ! A3    A(3,1,12)             120.011                                          !
 ! A4    A(1,2,4)              120.1077                                         !
 ! A5    A(1,2,13)             119.9593                                         !
 ! A6    A(4,2,13)             119.933                                          !
 ! A7    A(1,3,5)              120.0971                                         !
 ! A8    A(1,3,14)             119.9663                                         !
 ! A9    A(5,3,14)             119.9366                                         !
 ! A10   A(2,4,6)              119.9159                                         !
 ! A11   A(2,4,15)             119.5345                                         !
 ! A12   A(6,4,15)             120.5495                                         !
 ! A13   A(3,5,6)              119.8847                                         !
 ! A14   A(3,5,16)             119.5529                                         !
 ! A15   A(6,5,16)             120.5624                                         !
 ! A16   A(4,6,5)              119.9974                                         !
 ! A17   A(4,6,9)              120.0268                                         !
 ! A18   A(5,6,9)              119.9757                                         !
 ! A19   A(10,7,17)            111.1639                                         !
 ! A20   A(10,7,18)            109.6746                                         !
 ! A21   A(10,7,19)            111.7917                                         !
 ! A22   A(17,7,18)            108.8337                                         !
 ! A23   A(17,7,19)            106.9598                                         !
 ! A24   A(18,7,19)            108.3091                                         !
 ! A25   A(11,8,20)            109.3889                                         !
 ! A26   A(11,8,21)            108.4241                                         !
 ! A27   A(11,8,22)            108.531                                          !
 ! A28   A(20,8,21)            110.0428                                         !
 ! A29   A(20,8,22)            109.9659                                         !
 ! A30   A(21,8,22)            110.4491                                         !
 ! A31   A(6,9,10)             113.5103                                         !
 ! A32   A(6,9,23)             108.2066                                         !
 ! A33   A(6,9,24)             110.2051                                         !
 ! A34   A(10,9,23)            109.0833                                         !
 ! A35   A(10,9,24)            110.1211                                         !
 ! A36   A(23,9,24)            105.3678                                         !
 ! A37   A(7,10,9)             111.6402                                         !
 ! A38   A(7,10,11)            107.8013                                         !
 ! A39   A(7,10,25)            109.938                                          !
 ! A40   A(9,10,11)            109.5378                                         !
 ! A41   A(9,10,25)            111.589                                          !
 ! A42   A(11,10,25)           106.1129                                         !
 ! A43   A(8,11,10)            117.6991                                         !
 ! A44   A(8,11,26)            108.1681                                         !
 ! A45   A(8,11,27)            108.1577                                         !
 ! A46   A(10,11,26)           107.6293                                         !
 ! A47   A(10,11,27)           107.6461                                         !
 ! A48   A(26,11,27)           107.0893                                         !
 ! D1    D(3,1,2,4)              0.0137         Frozen                          !
 ! D2    D(3,1,2,13)          -179.9319         Frozen                          !
 ! D3    D(12,1,2,4)           179.9143         Frozen                          !
 ! D4    D(12,1,2,13)           -0.0312         Frozen                          !
 ! D5    D(2,1,3,5)             -0.0137         Frozen                          !
 ! D6    D(2,1,3,14)           179.9303         Frozen                          !
 ! D7    D(12,1,3,5)          -179.9143         Frozen                          !
 ! D8    D(12,1,3,14)            0.0297         Frozen                          !
 ! D9    D(1,2,4,6)             -0.0098         Frozen                          !
 ! D10   D(1,2,4,15)           179.9804         Frozen                          !
 ! D11   D(13,2,4,6)           179.9358         Frozen                          !
 ! D12   D(13,2,4,15)           -0.074          Frozen                          !
 ! D13   D(1,3,5,6)              0.0099         Frozen                          !
 ! D14   D(1,3,5,16)          -179.988          Frozen                          !
 ! D15   D(14,3,5,6)          -179.9341         Frozen                          !
 ! D16   D(14,3,5,16)            0.0679         Frozen                          !
 ! D17   D(2,4,6,5)              0.0059         Frozen                          !
 ! D18   D(2,4,6,9)            179.9882         Frozen                          !
 ! D19   D(15,4,6,5)          -179.9841         Frozen                          !
 ! D20   D(15,4,6,9)            -0.0018         Frozen                          !
 ! D21   D(3,5,6,4)             -0.006          Frozen                          !
 ! D22   D(3,5,6,9)           -179.9883         Frozen                          !
 ! D23   D(16,5,6,4)           179.9919         Frozen                          !
 ! D24   D(16,5,6,9)             0.0096         Frozen                          !
 ! D25   D(4,6,9,10)           -89.9871         Frozen                          !
 ! D26   D(4,6,9,23)           148.787          Frozen                          !
 ! D27   D(4,6,9,24)            34.0583         Frozen                          !
 ! D28   D(5,6,9,10)            89.9952         Frozen                          !
 ! D29   D(5,6,9,23)           -31.2307         Frozen                          !
 ! D30   D(5,6,9,24)          -145.9594         Frozen                          !
 ! D31   D(17,7,10,9)          -55.5974         Frozen                          !
 ! D32   D(17,7,10,11)          64.7517         Frozen                          !
 ! D33   D(17,7,10,25)        -179.9998         Frozen                          !
 ! D34   D(18,7,10,9)           64.8044         Frozen                          !
 ! D35   D(18,7,10,11)        -174.8465         Frozen                          !
 ! D36   D(18,7,10,25)         -59.598          Frozen                          !
 ! D37   D(19,7,10,9)         -175.0469         Frozen                          !
 ! D38   D(19,7,10,11)         -54.6978         Frozen                          !
 ! D39   D(19,7,10,25)          60.5508         Frozen                          !
 ! D40   D(20,8,11,10)          57.8363         Frozen                          !
 ! D41   D(20,8,11,26)         179.9966         Frozen                          !
 ! D42   D(20,8,11,27)         -64.3378         Frozen                          !
 ! D43   D(21,8,11,10)         177.8493         Frozen                          !
 ! D44   D(21,8,11,26)         -59.9904         Frozen                          !
 ! D45   D(21,8,11,27)          55.6751         Frozen                          !
 ! D46   D(22,8,11,10)         -62.1474         Frozen                          !
 ! D47   D(22,8,11,26)          60.0129         Frozen                          !
 ! D48   D(22,8,11,27)         175.6784         Frozen                          !
 ! D49   D(6,9,10,7)           -63.4674         Frozen                          !
 ! D50   D(6,9,10,11)          177.2064         Frozen                          !
 ! D51   D(6,9,10,25)           60.0047         Frozen                          !
 ! D52   D(23,9,10,7)           57.2658         Frozen                          !
 ! D53   D(23,9,10,11)         -62.0603         Frozen                          !
 ! D54   D(23,9,10,25)        -179.2621         Frozen                          !
 ! D55   D(24,9,10,7)          172.4417         Frozen                          !
 ! D56   D(24,9,10,11)          53.1155         Frozen                          !
 ! D57   D(24,9,10,25)         -64.0863         Frozen                          !
 ! D58   D(7,10,11,8)          177.7452         Frozen                          !
 ! D59   D(7,10,11,26)          55.3096         Frozen                          !
 ! D60   D(7,10,11,27)         -59.8192         Frozen                          !
 ! D61   D(9,10,11,8)          -60.5915         Frozen                          !
 ! D62   D(9,10,11,26)         176.9729         Frozen                          !
 ! D63   D(9,10,11,27)          61.8441         Frozen                          !
 ! D64   D(25,10,11,8)          59.9993         Frozen                          !
 ! D65   D(25,10,11,26)        -62.4363         Frozen                          !
 ! D66   D(25,10,11,27)       -177.5652         Frozen                          !
 --------------------------------------------------------------------------------
                          Input orientation:                          
 ---------------------------------------------------------------------
 Center     Atomic      Atomic             Coordinates (Angstroms)
 Number     Number       Type             X           Y           Z
 ---------------------------------------------------------------------
      1          6           0        2.776550   -1.708420   -6.210588
      2          6           0        2.052439   -0.540472   -5.961234
      3          6           0        2.852467   -2.704677   -5.234738
      4          6           0        1.404199   -0.366504   -4.737773
      5          6           0        2.205708   -2.535071   -4.009521
      6          6           0        1.480017   -1.364063   -3.759996
      7          6           0        2.871068   -1.343688   -0.999998
      8          6           0       -0.405208    0.572416   -0.159280
      9          6           0        0.774911   -1.177031   -2.425967
     10          6           0        1.652404   -0.493556   -1.356410
     11          7           0        0.830002   -0.286976   -0.070523
     12          1           0        3.278776   -1.842346   -7.163206
     13          1           0        1.992929    0.232896   -6.720477
     14          1           0        3.414414   -3.612648   -5.429487
     15          1           0        0.843421    0.546416   -4.553463
     16          1           0        2.270774   -3.315645   -3.256666
     17          1           0        2.572523   -2.347556   -0.677396
     18          1           0        3.522784   -1.432654   -1.868275
     19          1           0        3.449182   -0.902569   -0.179058
     20          1           0       -1.080820    0.157440   -0.902629
     21          1           0       -0.887385    0.584684    0.818384
     22          1           0       -0.106285    1.579744   -0.449133
     23          1           0        0.466113   -2.166180   -2.059043
     24          1           0       -0.154456   -0.616171   -2.565029
     25          1           0        1.972857    0.502704   -1.675205
     26          1           0        1.452704    0.120362    0.634048
     27          1           0        0.551412   -1.212635    0.272462
 ---------------------------------------------------------------------
                    Distance matrix (angstroms):
                    1          2          3          4          5
     1  C    0.000000
     2  C    1.396645   0.000000
     3  C    1.396629   2.419013   0.000000
     4  C    2.419353   1.395470   2.794907   0.000000
     5  C    2.419485   2.794835   1.395786   2.423934   0.000000
     6  C    2.793739   2.418971   2.419861   1.398901   1.400053
     7  C    5.224194   5.092069   4.448107   4.132500   3.304440
     8  C    7.207227   6.398532   6.863822   5.011799   5.594436
     9  C    4.314196   3.812532   3.813022   2.529310   2.529644
    10  C    5.128610   4.622405   4.622838   3.392841   3.393070
    11  N    6.596206   6.021551   6.050186   4.703111   4.739430
    12  H    1.085196   2.154882   2.155074   3.402187   3.402510
    13  H    2.154706   1.085398   3.402288   2.153368   3.880232
    14  H    2.154779   3.402351   1.085414   3.880320   2.153705
    15  H    3.401078   2.150550   3.882010   1.087135   3.412808
    16  H    3.400681   3.881229   2.150446   3.412047   1.086425
    17  H    5.573718   5.608474   4.579876   4.666499   3.357494
    18  H    4.414589   4.439619   3.660662   3.722782   2.744986
    19  H    6.122188   5.959494   5.400330   5.025058   4.345542
    20  H    6.821668   5.991150   6.513802   4.599801   5.263426
    21  H    8.251617   7.474741   7.838793   6.084981   6.527539
    22  H    7.233057   6.287977   7.071951   4.945895   5.912138
    23  H    4.773153   4.515136   4.008703   3.360720   2.639439
    24  H    4.803530   4.050966   4.531091   2.685621   3.367360
    25  H    5.109275   4.411870   4.871477   3.233917   3.838142
    26  H    7.207360   6.655383   6.662044   5.394057   5.401951
    27  H    6.872188   6.447003   6.152259   5.152246   4.777123
                    6          7          8          9         10
     6  C    0.000000
     7  C    3.090796   0.000000
     8  C    4.502131   3.887447   0.000000
     9  C    1.520457   2.540676   3.096952   0.000000
    10  C    2.562172   1.528036   2.608291   1.543076   0.000000
    11  N    3.898056   2.479216   1.507373   2.518600   1.540300
    12  H    3.878934   6.196775   8.273923   5.399391   6.179256
    13  H    3.402618   5.998385   6.993972   4.681269   5.423735
    14  H    3.403707   5.006373   7.738174   4.681916   5.424331
    15  H    2.164434   4.506767   4.568216   2.738832   3.457910
    16  H    2.165019   3.056390   5.645503   2.738858   3.457968
    17  H    3.415149   1.095880   4.202566   2.767496   2.178301
    18  H    2.784997   1.089290   4.729703   2.815524   2.154584
    19  H    4.112627   1.096697   4.127019   3.503663   2.186747
    20  H    4.127639   4.228508   1.086842   2.746835   2.846089
    21  H    5.510333   4.599033   1.090171   4.048787   3.513241
    22  H    4.705759   4.208864   1.089991   3.504880   2.866131
    23  H    2.136500   2.753521   3.445026   1.099275   2.167636
    24  H    2.158424   3.483159   2.695041   1.094360   2.177277
    25  H    2.841490   2.161446   2.821007   2.195502   1.094009
    26  H    4.638090   2.612529   2.070158   3.392096   2.092534
    27  H    4.140767   2.648987   2.070731   2.707902   2.093438
                   11         12         13         14         15
    11  N    0.000000
    12  H    7.663017   0.000000
    13  H    6.770860   2.481138   0.000000
    14  H    6.815993   2.481562   4.298312   0.000000
    15  H    4.559766   4.295101   2.472976   4.967416   0.000000
    16  H    4.626031   4.295082   4.966621   2.473312   4.316773
    17  H    2.765983   6.543681   6.596475   4.989148   5.136999
    18  H    3.434467   5.316361   5.353352   4.176883   4.278544
    19  H    2.692738   7.049153   6.797067   5.908700   5.293861
    20  H    2.130996   7.886701   6.580348   7.410339   4.145189
    21  H    2.121171   9.324868   8.078018   8.669427   5.643925
    22  H    2.122409   8.261242   6.749107   8.010004   4.337653
    23  H    2.760078   5.836817   5.460375   4.705809   3.704412
    24  H    2.701867   5.868034   4.753938   5.469993   2.510227
    25  H    2.122431   6.109243   5.052521   5.754028   3.092233
    26  H    1.024745   8.245237   7.375197   7.385805   5.240516
    27  H    1.025717   7.945075   7.284828   6.816822   5.144811
                   16         17         18         19         20
    16  H    0.000000
    17  H    2.771440   0.000000
    18  H    2.653454   1.777142   0.000000
    19  H    4.084514   1.762061   1.771965   0.000000
    20  H    5.370009   4.435385   4.965284   4.708300   0.000000
    21  H    6.464718   4.775600   5.544131   4.691761   1.783771
    22  H    6.123519   4.759390   4.925307   4.344670   1.782786
    23  H    2.452014   2.525629   3.149236   3.745631   3.021507
    24  H    3.694220   3.741292   3.830693   4.331407   2.054312
    25  H    4.143618   3.078832   2.486999   2.528396   3.168757
    26  H    5.254811   3.010731   3.599821   2.386096   2.963358
    27  H    4.453493   2.505028   3.668817   2.949081   2.433541
                   21         22         23         24         25
    21  H    0.000000
    22  H    1.790771   0.000000
    23  H    4.204616   4.117207   0.000000
    24  H    3.664249   3.049816   1.744607   0.000000
    25  H    3.795483   2.643122   3.088778   2.563032   0.000000
    26  H    2.392821   2.394477   3.668020   3.655070   2.397789
    27  H    2.366121   2.958149   2.520404   2.984187   2.959105
                   26         27
    26  H    0.000000
    27  H    1.649228   0.000000
 Stoichiometry    C10H16N(1+)
 Framework group  C1[X(C10H16N)]
 Deg. of freedom    75
 Full point group                 C1      NOp   1
 Largest Abelian subgroup         C1      NOp   1
 Largest concise Abelian subgroup C1      NOp   1
                         Standard orientation:                         
 ---------------------------------------------------------------------
 Center     Atomic      Atomic             Coordinates (Angstroms)
 Number     Number       Type             X           Y           Z
 ---------------------------------------------------------------------
      1          6           0       -3.504792   -0.151059    0.226698
      2          6           0       -2.743250   -1.283237    0.524766
      3          6           0       -2.902161    0.958520   -0.370162
      4          6           0       -1.380048   -1.308095    0.227449
      5          6           0       -1.538971    0.938218   -0.669366
      6          6           0       -0.775972   -0.196923   -0.370308
      7          6           0        1.323588    1.772401    0.755140
      8          6           0        3.608764   -1.210229   -0.241921
      9          6           0        0.709192   -0.221178   -0.695101
     10          6           0        1.598929    0.300094    0.452822
     11          7           0        3.081352    0.170248    0.055223
     12          1           0       -4.565038   -0.134292    0.457450
     13          1           0       -3.212448   -2.145629    0.987609
     14          1           0       -3.494709    1.837707   -0.602625
     15          1           0       -0.796076   -2.194093    0.463766
     16          1           0       -1.079237    1.806310   -1.133458
     17          1           0        1.442435    2.389591   -0.142582
     18          1           0        0.306458    1.886241    1.128019
     19          1           0        2.013563    2.169039    1.509698
     20          1           0        3.026591   -1.653664   -1.045454
     21          1           0        4.653304   -1.122886   -0.541551
     22          1           0        3.520641   -1.816247    0.659775
     23          1           0        0.875602    0.397710   -1.588236
     24          1           0        1.017125   -1.231663   -0.980971
     25          1           0        1.474803   -0.296822    1.361194
     26          1           0        3.642316    0.570169    0.813831
     27          1           0        3.233537    0.755720   -0.773124
 ---------------------------------------------------------------------
 Rotational constants (GHZ):           2.4718687           0.5548774           0.4921686
 Standard basis: 6-31G(d,p) (6D, 7F)
 There are   245 symmetry adapted cartesian basis functions of A   symmetry.
 There are   245 symmetry adapted basis functions of A   symmetry.
   245 basis functions,   420 primitive gaussians,   245 cartesian basis functions
    41 alpha electrons       41 beta electrons
       nuclear repulsion energy       603.6688722767 Hartrees.
 NAtoms=   27 NActive=   27 NUniq=   27 SFac= 1.00D+00 NAtFMM=   60 NAOKFM=F Big=F
 Integral buffers will be    131072 words long.
 Raffenetti 1 integral format.
 Two-electron integral symmetry is turned on.
 ------------------------------------------------------------------------------
 Polarizable Continuum Model (PCM)
 =================================
 Model                : PCM.
 Atomic radii         : UFF (Universal Force Field).
 Polarization charges : Total charges.
 Charge compensation  : None.
 Solution method      : On-the-fly selection.
 Cavity type          : Scaled VdW (van der Waals Surface) (Alpha=1.100).
 Cavity algorithm     : GePol (No added spheres)
                        Default sphere list used, NSphG=   27.
                        Lebedev-Laikov grids with approx.  5.0 points / Ang**2.
                        Smoothing algorithm: York/Karplus (Gamma=1.0000).
                        Polarization charges: spherical gaussians, with
                                              point-specific exponents (IZeta= 3).
                        Self-potential: point-specific (ISelfS= 7).
                        Self-field    : sphere-specific E.n sum rule (ISelfD= 2).
 Solvent              : Water, Eps=  78.355300 Eps(inf)=   1.777849
 ------------------------------------------------------------------------------
 One-electron integrals computed using PRISM.
 NBasis=   245 RedAO= T EigKep=  4.72D-04  NBF=   245
 NBsUse=   245 1.00D-06 EigRej= -1.00D+00 NBFU=   245
 Initial guess from the checkpoint file:  "G1.chk"
 B after Tr=     0.000000    0.000000   -0.000000
         Rot=    1.000000   -0.000000   -0.000000    0.000000 Ang=   0.00 deg.
 Requested convergence on RMS density matrix=1.00D-08 within 128 cycles.
 Requested convergence on MAX density matrix=1.00D-06.
 Requested convergence on             energy=1.00D-06.
 No special actions if energy rises.
 Inv3:  Mode=1 IEnd=    10773075.
 Iteration    1 A*A^-1 deviation from unit magnitude is 5.77D-15 for   1894.
 Iteration    1 A*A^-1 deviation from orthogonality  is 2.32D-15 for   1894   1811.
 Iteration    1 A^-1*A deviation from unit magnitude is 6.00D-15 for   1894.
 Iteration    1 A^-1*A deviation from orthogonality  is 3.64D-15 for   1880   1260.
 Error on total polarization charges =  0.00819
 SCF Done:  E(RHF) =  -442.352359104     A.U. after   13 cycles
            NFock= 13  Conv=0.36D-08     -V/T= 2.0022

 **********************************************************************

            Population analysis using the SCF density.

 **********************************************************************

 Orbital symmetries:
       Occupied  (A) (A) (A) (A) (A) (A) (A) (A) (A) (A) (A) (A)
                 (A) (A) (A) (A) (A) (A) (A) (A) (A) (A) (A) (A)
                 (A) (A) (A) (A) (A) (A) (A) (A) (A) (A) (A) (A)
                 (A) (A) (A) (A) (A)
       Virtual   (A) (A) (A) (A) (A) (A) (A) (A) (A) (A) (A) (A)
                 (A) (A) (A) (A) (A) (A) (A) (A) (A) (A) (A) (A)
                 (A) (A) (A) (A) (A) (A) (A) (A) (A) (A) (A) (A)
                 (A) (A) (A) (A) (A) (A) (A) (A) (A) (A) (A) (A)
                 (A) (A) (A) (A) (A) (A) (A) (A) (A) (A) (A) (A)
                 (A) (A) (A) (A) (A) (A) (A) (A) (A) (A) (A) (A)
                 (A) (A) (A) (A) (A) (A) (A) (A) (A) (A) (A) (A)
                 (A) (A) (A) (A) (A) (A) (A) (A) (A) (A) (A) (A)
                 (A) (A) (A) (A) (A) (A) (A) (A) (A) (A) (A) (A)
                 (A) (A) (A) (A) (A) (A) (A) (A) (A) (A) (A) (A)
                 (A) (A) (A) (A) (A) (A) (A) (A) (A) (A) (A) (A)
                 (A) (A) (A) (A) (A) (A) (A) (A) (A) (A) (A) (A)
                 (A) (A) (A) (A) (A) (A) (A) (A) (A) (A) (A) (A)
                 (A) (A) (A) (A) (A) (A) (A) (A) (A) (A) (A) (A)
                 (A) (A) (A) (A) (A) (A) (A) (A) (A) (A) (A) (A)
                 (A) (A) (A) (A) (A) (A) (A) (A) (A) (A) (A) (A)
                 (A) (A) (A) (A) (A) (A) (A) (A) (A) (A) (A) (A)
 The electronic state is 1-A.
 Alpha  occ. eigenvalues --  -15.70928 -11.31822 -11.30039 -11.25580 -11.25405
 Alpha  occ. eigenvalues --  -11.24197 -11.24181 -11.24158 -11.24089 -11.24060
 Alpha  occ. eigenvalues --  -11.23907  -1.32737  -1.16147  -1.09586  -1.03118
 Alpha  occ. eigenvalues --   -1.01795  -0.97128  -0.94872  -0.85975  -0.83000
 Alpha  occ. eigenvalues --   -0.80960  -0.77576  -0.70091  -0.69358  -0.68072
 Alpha  occ. eigenvalues --   -0.65278  -0.63538  -0.61925  -0.59197  -0.58900
 Alpha  occ. eigenvalues --   -0.58203  -0.57149  -0.56310  -0.54628  -0.52645
 Alpha  occ. eigenvalues --   -0.51436  -0.49366  -0.49026  -0.48847  -0.34033
 Alpha  occ. eigenvalues --   -0.33463
 Alpha virt. eigenvalues --    0.12986   0.13243   0.17626   0.22373   0.23049
 Alpha virt. eigenvalues --    0.23816   0.25636   0.26350   0.28051   0.28199
 Alpha virt. eigenvalues --    0.29615   0.30179   0.30697   0.31502   0.32092
 Alpha virt. eigenvalues --    0.32321   0.33322   0.34213   0.35897   0.36385
 Alpha virt. eigenvalues --    0.38398   0.39527   0.41212   0.44059   0.47367
 Alpha virt. eigenvalues --    0.49429   0.51049   0.52068   0.62428   0.64754
 Alpha virt. eigenvalues --    0.67394   0.70016   0.71780   0.72989   0.73534
 Alpha virt. eigenvalues --    0.75531   0.76982   0.77266   0.79212   0.79636
 Alpha virt. eigenvalues --    0.81433   0.82625   0.83364   0.83534   0.84003
 Alpha virt. eigenvalues --    0.85784   0.87789   0.90361   0.91632   0.92043
 Alpha virt. eigenvalues --    0.96027   0.98036   0.99410   1.02178   1.04111
 Alpha virt. eigenvalues --    1.05930   1.06376   1.06731   1.07560   1.08475
 Alpha virt. eigenvalues --    1.09054   1.09523   1.10501   1.11401   1.13025
 Alpha virt. eigenvalues --    1.13868   1.14590   1.15680   1.16098   1.17358
 Alpha virt. eigenvalues --    1.17881   1.19824   1.20900   1.23035   1.24272
 Alpha virt. eigenvalues --    1.24543   1.28528   1.31923   1.33982   1.38077
 Alpha virt. eigenvalues --    1.41785   1.42543   1.46377   1.50012   1.51147
 Alpha virt. eigenvalues --    1.55762   1.59348   1.61723   1.65578   1.66870
 Alpha virt. eigenvalues --    1.67397   1.68811   1.69122   1.70023   1.72964
 Alpha virt. eigenvalues --    1.79459   1.83111   1.90180   1.91768   1.95762
 Alpha virt. eigenvalues --    1.99264   2.03374   2.06242   2.09002   2.09977
 Alpha virt. eigenvalues --    2.10423   2.13727   2.16166   2.17544   2.18591
 Alpha virt. eigenvalues --    2.19082   2.20283   2.23634   2.25037   2.26672
 Alpha virt. eigenvalues --    2.27132   2.29059   2.29546   2.29748   2.30582
 Alpha virt. eigenvalues --    2.32732   2.34416   2.36087   2.38851   2.39363
 Alpha virt. eigenvalues --    2.40461   2.42844   2.44832   2.51434   2.51980
 Alpha virt. eigenvalues --    2.54013   2.55457   2.57741   2.59636   2.61834
 Alpha virt. eigenvalues --    2.62204   2.63198   2.66143   2.66737   2.68178
 Alpha virt. eigenvalues --    2.69181   2.69804   2.72677   2.74575   2.76087
 Alpha virt. eigenvalues --    2.77303   2.79538   2.80354   2.83395   2.84490
 Alpha virt. eigenvalues --    2.87058   2.88618   2.90851   2.91966   2.94699
 Alpha virt. eigenvalues --    2.96377   2.98056   2.98841   3.00030   3.03713
 Alpha virt. eigenvalues --    3.05906   3.07665   3.08687   3.10560   3.11271
 Alpha virt. eigenvalues --    3.15388   3.17049   3.19693   3.20681   3.21674
 Alpha virt. eigenvalues --    3.23291   3.26095   3.27449   3.39398   3.40880
 Alpha virt. eigenvalues --    3.52094   3.53976   3.54995   3.60138   3.60773
 Alpha virt. eigenvalues --    3.61702   3.63786   3.65744   3.72064   3.74887
 Alpha virt. eigenvalues --    3.78186   3.79575   3.80879   3.85452   3.88337
 Alpha virt. eigenvalues --    3.89504   3.90320   4.28539   4.51655   4.55870
 Alpha virt. eigenvalues --    4.58405   4.63136   4.75502   4.85590   4.85951
 Alpha virt. eigenvalues --    4.89196   4.96298   5.11833   5.26206
          Condensed to atoms (all electrons):
               1          2          3          4          5          6
     1  C    4.861031   0.547580   0.546912  -0.051740  -0.051740  -0.028059
     2  C    0.547580   4.857451  -0.046675   0.543244  -0.034037  -0.049403
     3  C    0.546912  -0.046675   4.856743  -0.033875   0.544319  -0.050199
     4  C   -0.051740   0.543244  -0.033875   4.850958  -0.036329   0.560209
     5  C   -0.051740  -0.034037   0.544319  -0.036329   4.862340   0.555105
     6  C   -0.028059  -0.049403  -0.050199   0.560209   0.555105   4.887909
     7  C    0.000014   0.000009  -0.000206   0.000513  -0.005377  -0.003030
     8  C    0.000000   0.000000   0.000000   0.000010  -0.000003   0.000018
     9  C    0.000148   0.002801   0.003047  -0.045382  -0.043371   0.338478
    10  C    0.000011  -0.000026  -0.000055  -0.002706  -0.003023  -0.047336
    11  N   -0.000000   0.000001   0.000000  -0.000000  -0.000045   0.002594
    12  H    0.395985  -0.028611  -0.028655   0.002311   0.002356   0.000254
    13  H   -0.028080   0.394328   0.002175  -0.027217   0.000317   0.001974
    14  H   -0.027929   0.002159   0.394215   0.000328  -0.027139   0.001936
    15  H    0.002280  -0.025651   0.000124   0.395456   0.002165  -0.031833
    16  H    0.002219   0.000143  -0.024306   0.002079   0.395858  -0.032516
    17  H    0.000000  -0.000000   0.000004  -0.000011   0.000235  -0.000454
    18  H   -0.000024  -0.000063   0.000195   0.000240   0.001245   0.003401
    19  H   -0.000000  -0.000001   0.000003  -0.000012   0.000136   0.000068
    20  H    0.000000  -0.000000  -0.000000   0.000012  -0.000001   0.000086
    21  H   -0.000000  -0.000000  -0.000000  -0.000000   0.000000   0.000002
    22  H   -0.000000   0.000000  -0.000000   0.000001   0.000000  -0.000032
    23  H    0.000001  -0.000059   0.000185   0.002087  -0.001925  -0.042395
    24  H    0.000005   0.000102  -0.000072  -0.002534   0.001878  -0.032641
    25  H   -0.000004  -0.000009  -0.000012   0.001327   0.000410  -0.000854
    26  H    0.000000  -0.000000  -0.000000   0.000000  -0.000000  -0.000040
    27  H   -0.000000   0.000000   0.000000  -0.000001   0.000008  -0.000139
               7          8          9         10         11         12
     1  C    0.000014   0.000000   0.000148   0.000011  -0.000000   0.395985
     2  C    0.000009   0.000000   0.002801  -0.000026   0.000001  -0.028611
     3  C   -0.000206   0.000000   0.003047  -0.000055   0.000000  -0.028655
     4  C    0.000513   0.000010  -0.045382  -0.002706  -0.000000   0.002311
     5  C   -0.005377  -0.000003  -0.043371  -0.003023  -0.000045   0.002356
     6  C   -0.003030   0.000018   0.338478  -0.047336   0.002594   0.000254
     7  C    4.983186   0.002827  -0.065033   0.344337  -0.061883   0.000000
     8  C    0.002827   4.868883  -0.002023  -0.031843   0.168933  -0.000000
     9  C   -0.065033  -0.002023   5.012304   0.321193  -0.058649   0.000004
    10  C    0.344337  -0.031843   0.321193   5.049187   0.167793   0.000000
    11  N   -0.061883   0.168933  -0.058649   0.167793   6.855829   0.000000
    12  H    0.000000  -0.000000   0.000004   0.000000   0.000000   0.488920
    13  H   -0.000000  -0.000000  -0.000111   0.000000  -0.000000  -0.001666
    14  H   -0.000001  -0.000000  -0.000113   0.000000  -0.000000  -0.001670
    15  H    0.000009   0.000010  -0.002551   0.000196  -0.000023  -0.000105
    16  H   -0.000497   0.000000  -0.002172   0.000079  -0.000019  -0.000104
    17  H    0.399416  -0.000098  -0.003865  -0.038392  -0.002308   0.000000
    18  H    0.403327  -0.000053  -0.003951  -0.032085   0.003162   0.000000
    19  H    0.401574  -0.000054   0.004163  -0.036303  -0.002504  -0.000000
    20  H   -0.000066   0.409230   0.000068  -0.003682  -0.032184  -0.000000
    21  H   -0.000081   0.408685   0.000030   0.002579  -0.030416  -0.000000
    22  H   -0.000058   0.405986  -0.000223  -0.001481  -0.034125  -0.000000
    23  H   -0.004283  -0.000018   0.414664  -0.040598  -0.001377  -0.000000
    24  H    0.003634  -0.002292   0.415008  -0.038503  -0.001939  -0.000000
    25  H   -0.034319  -0.001271  -0.034731   0.418937  -0.036714  -0.000000
    26  H   -0.002306  -0.020654   0.003369  -0.022038   0.346334  -0.000000
    27  H   -0.002161  -0.022063  -0.002414  -0.020223   0.340102   0.000000
              13         14         15         16         17         18
     1  C   -0.028080  -0.027929   0.002280   0.002219   0.000000  -0.000024
     2  C    0.394328   0.002159  -0.025651   0.000143  -0.000000  -0.000063
     3  C    0.002175   0.394215   0.000124  -0.024306   0.000004   0.000195
     4  C   -0.027217   0.000328   0.395456   0.002079  -0.000011   0.000240
     5  C    0.000317  -0.027139   0.002165   0.395858   0.000235   0.001245
     6  C    0.001974   0.001936  -0.031833  -0.032516  -0.000454   0.003401
     7  C   -0.000000  -0.000001   0.000009  -0.000497   0.399416   0.403327
     8  C   -0.000000  -0.000000   0.000010   0.000000  -0.000098  -0.000053
     9  C   -0.000111  -0.000113  -0.002551  -0.002172  -0.003865  -0.003951
    10  C    0.000000   0.000000   0.000196   0.000079  -0.038392  -0.032085
    11  N   -0.000000  -0.000000  -0.000023  -0.000019  -0.002308   0.003162
    12  H   -0.001666  -0.001670  -0.000105  -0.000104   0.000000   0.000000
    13  H    0.487460  -0.000106  -0.001556   0.000009   0.000000  -0.000000
    14  H   -0.000106   0.486941   0.000009  -0.001493  -0.000001  -0.000000
    15  H   -0.001556   0.000009   0.484832  -0.000099   0.000000   0.000004
    16  H    0.000009  -0.001493  -0.000099   0.482470   0.000305  -0.000404
    17  H    0.000000  -0.000001   0.000000   0.000305   0.540824  -0.021866
    18  H   -0.000000  -0.000000   0.000004  -0.000404  -0.021866   0.498420
    19  H    0.000000   0.000000   0.000000   0.000018  -0.028508  -0.019448
    20  H    0.000000   0.000000   0.000010   0.000000   0.000008  -0.000000
    21  H   -0.000000   0.000000  -0.000000   0.000000   0.000002   0.000001
    22  H   -0.000000  -0.000000   0.000003  -0.000000  -0.000000   0.000001
    23  H    0.000002  -0.000006   0.000017   0.001317   0.002240   0.000326
    24  H   -0.000005   0.000002   0.001269   0.000006  -0.000004  -0.000021
    25  H    0.000001  -0.000000   0.000206   0.000007   0.003464  -0.001796
    26  H    0.000000   0.000000   0.000001   0.000001  -0.000176  -0.000038
    27  H    0.000000  -0.000000  -0.000000  -0.000003   0.002509  -0.000020
              19         20         21         22         23         24
     1  C   -0.000000   0.000000  -0.000000  -0.000000   0.000001   0.000005
     2  C   -0.000001  -0.000000  -0.000000   0.000000  -0.000059   0.000102
     3  C    0.000003  -0.000000  -0.000000  -0.000000   0.000185  -0.000072
     4  C   -0.000012   0.000012  -0.000000   0.000001   0.002087  -0.002534
     5  C    0.000136  -0.000001   0.000000   0.000000  -0.001925   0.001878
     6  C    0.000068   0.000086   0.000002  -0.000032  -0.042395  -0.032641
     7  C    0.401574  -0.000066  -0.000081  -0.000058  -0.004283   0.003634
     8  C   -0.000054   0.409230   0.408685   0.405986  -0.000018  -0.002292
     9  C    0.004163   0.000068   0.000030  -0.000223   0.414664   0.415008
    10  C   -0.036303  -0.003682   0.002579  -0.001481  -0.040598  -0.038503
    11  N   -0.002504  -0.032184  -0.030416  -0.034125  -0.001377  -0.001939
    12  H   -0.000000  -0.000000  -0.000000  -0.000000  -0.000000  -0.000000
    13  H    0.000000   0.000000  -0.000000  -0.000000   0.000002  -0.000005
    14  H    0.000000   0.000000   0.000000  -0.000000  -0.000006   0.000002
    15  H    0.000000   0.000010  -0.000000   0.000003   0.000017   0.001269
    16  H    0.000018   0.000000   0.000000  -0.000000   0.001317   0.000006
    17  H   -0.028508   0.000008   0.000002  -0.000000   0.002240  -0.000004
    18  H   -0.019448  -0.000000   0.000001   0.000001   0.000326  -0.000021
    19  H    0.531149  -0.000002  -0.000002   0.000005  -0.000037  -0.000079
    20  H   -0.000002   0.483421  -0.022539  -0.023212   0.000311  -0.002740
    21  H   -0.000002  -0.022539   0.469580  -0.021230  -0.000031   0.000136
    22  H    0.000005  -0.023212  -0.021230   0.476533   0.000018   0.000038
    23  H   -0.000037   0.000311  -0.000031   0.000018   0.528582  -0.026370
    24  H   -0.000079  -0.002740   0.000136   0.000038  -0.026370   0.522141
    25  H   -0.002747   0.000089  -0.000074   0.001627   0.003200  -0.001507
    26  H    0.002658   0.002569  -0.002470  -0.002650  -0.000069  -0.000143
    27  H   -0.000111  -0.001987  -0.002907   0.002845   0.002405  -0.000026
              25         26         27
     1  C   -0.000004   0.000000  -0.000000
     2  C   -0.000009  -0.000000   0.000000
     3  C   -0.000012  -0.000000   0.000000
     4  C    0.001327   0.000000  -0.000001
     5  C    0.000410  -0.000000   0.000008
     6  C   -0.000854  -0.000040  -0.000139
     7  C   -0.034319  -0.002306  -0.002161
     8  C   -0.001271  -0.020654  -0.022063
     9  C   -0.034731   0.003369  -0.002414
    10  C    0.418937  -0.022038  -0.020223
    11  N   -0.036714   0.346334   0.340102
    12  H   -0.000000  -0.000000   0.000000
    13  H    0.000001   0.000000   0.000000
    14  H   -0.000000   0.000000  -0.000000
    15  H    0.000206   0.000001  -0.000000
    16  H    0.000007   0.000001  -0.000003
    17  H    0.003464  -0.000176   0.002509
    18  H   -0.001796  -0.000038  -0.000020
    19  H   -0.002747   0.002658  -0.000111
    20  H    0.000089   0.002569  -0.001987
    21  H   -0.000074  -0.002470  -0.002907
    22  H    0.001627  -0.002650   0.002845
    23  H    0.003200  -0.000069   0.002405
    24  H   -0.001507  -0.000143  -0.000026
    25  H    0.478675  -0.002160   0.003038
    26  H   -0.002160   0.305369  -0.012418
    27  H    0.003038  -0.012418   0.315979
 Mulliken charges:
               1
     1  C   -0.168608
     2  C   -0.163284
     3  C   -0.163869
     4  C   -0.158968
     5  C   -0.163382
     6  C   -0.033103
     7  C   -0.359546
     8  C   -0.184209
     9  C   -0.250687
    10  C    0.013981
    11  N   -0.622564
    12  H    0.170980
    13  H    0.172476
    14  H    0.172867
    15  H    0.175226
    16  H    0.177100
    17  H    0.146675
    18  H    0.169447
    19  H    0.150036
    20  H    0.190610
    21  H    0.198735
    22  H    0.195955
    23  H    0.161812
    24  H    0.164658
    25  H    0.205216
    26  H    0.404862
    27  H    0.397586
 Sum of Mulliken charges =   1.00000
 Mulliken charges with hydrogens summed into heavy atoms:
               1
     1  C    0.002371
     2  C    0.009192
     3  C    0.008998
     4  C    0.016258
     5  C    0.013717
     6  C   -0.033103
     7  C    0.106612
     8  C    0.401091
     9  C    0.075783
    10  C    0.219197
    11  N    0.179884
 Electronic spatial extent (au):  <R**2>=           2329.4466
 Charge=              1.0000 electrons
 Dipole moment (field-independent basis, Debye):
    X=             13.4086    Y=              0.4706    Z=              0.3260  Tot=             13.4208
 Quadrupole moment (field-independent basis, Debye-Ang):
   XX=            -14.2710   YY=            -56.9812   ZZ=            -64.8818
   XY=             -0.7352   XZ=             -1.3144   YZ=             -2.4842
 Traceless Quadrupole moment (field-independent basis, Debye-Ang):
   XX=             31.1070   YY=            -11.6032   ZZ=            -19.5038
   XY=             -0.7352   XZ=             -1.3144   YZ=             -2.4842
 Octapole moment (field-independent basis, Debye-Ang**2):
  XXX=            163.1448  YYY=             -2.4501  ZZZ=              1.6273  XYY=             16.6233
  XXY=             -0.1975  XXZ=              8.4215  XZZ=             26.2064  YZZ=              2.3896
  YYZ=              0.8250  XYZ=              9.1268
 Hexadecapole moment (field-independent basis, Debye-Ang**3):
 XXXX=          -1583.0630 YYYY=           -503.7126 ZZZZ=           -205.3353 XXXY=            -30.3426
 XXXZ=            -31.4844 YYYX=             -9.6599 YYYZ=            -14.4240 ZZZX=              1.6694
 ZZZY=             -0.0908 XXYY=           -408.6840 XXZZ=           -410.4950 YYZZ=           -113.9895
 XXYZ=            -14.3036 YYXZ=             -4.8116 ZZXY=              3.5830
 N-N= 6.036688722767D+02 E-N=-2.223423997826D+03  KE= 4.413628723682D+02
 Merz-Kollman atomic radii used.

 **********************************************************************

            Electrostatic Properties Using The SCF Density

 **********************************************************************

       Atomic Center    1 is at  -3.504792 -0.151059  0.226698
       Atomic Center    2 is at  -2.743250 -1.283237  0.524766
       Atomic Center    3 is at  -2.902161  0.958520 -0.370162
       Atomic Center    4 is at  -1.380048 -1.308095  0.227449
       Atomic Center    5 is at  -1.538971  0.938218 -0.669366
       Atomic Center    6 is at  -0.775972 -0.196923 -0.370308
       Atomic Center    7 is at   1.323588  1.772401  0.755140
       Atomic Center    8 is at   3.608764 -1.210229 -0.241921
       Atomic Center    9 is at   0.709192 -0.221178 -0.695101
       Atomic Center   10 is at   1.598929  0.300094  0.452822
       Atomic Center   11 is at   3.081352  0.170248  0.055223
       Atomic Center   12 is at  -4.565038 -0.134292  0.457450
       Atomic Center   13 is at  -3.212448 -2.145629  0.987609
       Atomic Center   14 is at  -3.494709  1.837707 -0.602625
       Atomic Center   15 is at  -0.796076 -2.194093  0.463766
       Atomic Center   16 is at  -1.079237  1.806310 -1.133458
       Atomic Center   17 is at   1.442435  2.389591 -0.142582
       Atomic Center   18 is at   0.306458  1.886241  1.128019
       Atomic Center   19 is at   2.013563  2.169039  1.509698
       Atomic Center   20 is at   3.026591 -1.653664 -1.045454
       Atomic Center   21 is at   4.653304 -1.122886 -0.541551
       Atomic Center   22 is at   3.520641 -1.816247  0.659775
       Atomic Center   23 is at   0.875602  0.397710 -1.588236
       Atomic Center   24 is at   1.017125 -1.231663 -0.980971
       Atomic Center   25 is at   1.474803 -0.296822  1.361194
       Atomic Center   26 is at   3.642316  0.570169  0.813831
       Atomic Center   27 is at   3.233537  0.755720 -0.773124
    1116 points will be used for fitting atomic charges
 Fitting point charges to electrostatic potential
 Charges from ESP fit, RMS=   0.00120 RRMS=   0.01002:
 ESP charges:
               1
     1  C   -0.187965
     2  C   -0.117643
     3  C   -0.134732
     4  C   -0.250161
     5  C   -0.241298
     6  C    0.281698
     7  C   -0.650332
     8  C   -0.174107
     9  C   -0.609627
    10  C    0.406473
    11  N   -0.280242
    12  H    0.159221
    13  H    0.150510
    14  H    0.155679
    15  H    0.165946
    16  H    0.167123
    17  H    0.185167
    18  H    0.211490
    19  H    0.164656
    20  H    0.136544
    21  H    0.138455
    22  H    0.135610
    23  H    0.202598
    24  H    0.192203
    25  H    0.090841
    26  H    0.349640
    27  H    0.352253
 Sum of ESP charges =   1.00000
 ESP charges with hydrogens summed into heavy atoms:
               1
     1  C   -0.028744
     2  C    0.032867
     3  C    0.020947
     4  C   -0.084215
     5  C   -0.074176
     6  C    0.281698
     7  C   -0.089018
     8  C    0.236503
     9  C   -0.214826
    10  C    0.497314
    11  N    0.421651
 Charge=   1.00000 Dipole=    13.3837     0.4597     0.2998 Tot=    13.3950
 Writing Antechamber ESP formatted file "G1.esp"
 -----------------------------------------------------------------

              Electrostatic Properties (Atomic Units)

 -----------------------------------------------------------------
    Center     Electric         -------- Electric Field --------
               Potential          X             Y             Z
 -----------------------------------------------------------------
    1 Atom    -14.646303
    2 Atom    -14.638516
    3 Atom    -14.638203
    4 Atom    -14.619822
    5 Atom    -14.620722
    6 Atom    -14.595044
    7 Atom    -14.566922
    8 Atom    -14.479851
    9 Atom    -14.557111
   10 Atom    -14.476745
   11 Atom    -18.006413
   12 Atom     -1.034283
   13 Atom     -1.024980
   14 Atom     -1.024686
   15 Atom     -0.990462
   16 Atom     -0.991883
   17 Atom     -0.953374
   18 Atom     -0.973314
   19 Atom     -0.952069
   20 Atom     -0.906656
   21 Atom     -0.900876
   22 Atom     -0.904935
   23 Atom     -0.955093
   24 Atom     -0.954556
   25 Atom     -0.921451
   26 Atom     -0.757730
   27 Atom     -0.759639
 -----------------------------------------------------------------

 Test job not archived.
 1\1\GINC-CPU156\SP\RHF\6-31G(d,p)\C10H16N1(1+)\FEBRERMA\05-Feb-2024\0\
 \# HF/6-31G** SCRF=(Solvent=Water) POP=MK iop(6/50=1) geom=allcheck gu
 ess=read\\G1\\1,1\C,0,2.7765501178,-1.7084196725,-6.2105875208\C,0,2.0
 524391116,-0.5404718575,-5.9612338233\C,0,2.8524666482,-2.7046767915,-
 5.2347380132\C,0,1.4041986232,-0.3665036635,-4.7377734104\C,0,2.205708
 1942,-2.5350712208,-4.0095208454\C,0,1.4800173884,-1.3640634794,-3.759
 9957453\C,0,2.8710681326,-1.3436875283,-0.9999983884\C,0,-0.405207652,
 0.5724155681,-0.1592796886\C,0,0.7749108207,-1.177030565,-2.4259667478
 \C,0,1.6524037812,-0.4935561424,-1.356409967\N,0,0.8300018588,-0.28697
 61537,-0.0705234546\H,0,3.2787763457,-1.8423460491,-7.1632063314\H,0,1
 .9929287284,0.2328963079,-6.7204766849\H,0,3.414413873,-3.6126475355,-
 5.42948678\H,0,0.8434213695,0.5464155106,-4.5534629889\H,0,2.270774190
 8,-3.3156451021,-3.2566663163\H,0,2.5725225525,-2.3475562058,-0.677396
 3174\H,0,3.5227843554,-1.4326539996,-1.8682745838\H,0,3.4491816856,-0.
 9025691211,-0.1790575937\H,0,-1.0808198154,0.1574396625,-0.9026289556\
 H,0,-0.8873852613,0.5846844403,0.8183838744\H,0,-0.1062845841,1.579743
 7167,-0.4491327112\H,0,0.4661134348,-2.16617996,-2.0590426705\H,0,-0.1
 544563051,-0.6161714088,-2.5650287508\H,0,1.9728568028,0.5027044016,-1
 .675204921\H,0,1.4527036996,0.1203620964,0.6340475838\H,0,0.5514119031
 ,-1.2126352474,0.2724617521\\Version=ES64L-G16RevA.03\State=1-A\HF=-44
 2.3523591\RMSD=3.567e-09\Dipole=-1.4128907,1.3709584,4.8994025\Quadrup
 ole=-9.6880756,-7.6426699,17.3307455,-5.6188156,-10.536953,6.7477796\P
 G=C01 [X(C10H16N1)]\\@


 MYSTERY IS THE WISDOM OF BLOCKHEADS... HORACE WALPOLE 
 Job cpu time:       0 days  0 hours  2 minutes 36.9 seconds.
 Elapsed time:       0 days  0 hours  0 minutes 20.6 seconds.
 File lengths (MBytes):  RWF=     98 Int=      0 D2E=      0 Chk=      7 Scr=      1
 Normal termination of Gaussian 16 at Mon Feb  5 16:01:29 2024.
