 Entering Gaussian System, Link 0=g16
 Initial command:
 /opt/ebsofts/Gaussian/g16/l1.exe "/scratch/Gau-4109917.inp" -scrdir="/scratch/"
 Entering Link 1 = /opt/ebsofts/Gaussian/g16/l1.exe PID=   4109922.
  
 Copyright (c) 1988,1990,1992,1993,1995,1998,2003,2009,2016,
            Gaussian, Inc.  All Rights Reserved.
  
 This is part of the Gaussian(R) 16 program.  It is based on
 the Gaussian(R) 09 system (copyright 2009, Gaussian, Inc.),
 the Gaussian(R) 03 system (copyright 2003, Gaussian, Inc.),
 the Gaussian(R) 98 system (copyright 1998, Gaussian, Inc.),
 the Gaussian(R) 94 system (copyright 1995, Gaussian, Inc.),
 the Gaussian 92(TM) system (copyright 1992, Gaussian, Inc.),
 the Gaussian 90(TM) system (copyright 1990, Gaussian, Inc.),
 the Gaussian 88(TM) system (copyright 1988, Gaussian, Inc.),
 the Gaussian 86(TM) system (copyright 1986, Carnegie Mellon
 University), and the Gaussian 82(TM) system (copyright 1983,
 Carnegie Mellon University). Gaussian is a federally registered
 trademark of Gaussian, Inc.
  
 This software contains proprietary and confidential information,
 including trade secrets, belonging to Gaussian, Inc.
  
 This software is provided under written license and may be
 used, copied, transmitted, or stored only in accord with that
 written license.
  
 The following legend is applicable only to US Government
 contracts under FAR:
  
                    RESTRICTED RIGHTS LEGEND
  
 Use, reproduction and disclosure by the US Government is
 subject to restrictions as set forth in subparagraphs (a)
 and (c) of the Commercial Computer Software - Restricted
 Rights clause in FAR 52.227-19.
  
 Gaussian, Inc.
 340 Quinnipiac St., Bldg. 40, Wallingford CT 06492
  
  
 ---------------------------------------------------------------
 Warning -- This program may not be used in any manner that
 competes with the business of Gaussian, Inc. or will provide
 assistance to any competitor of Gaussian, Inc.  The licensee
 of this program is prohibited from giving any competitor of
 Gaussian, Inc. access to this program.  By using this program,
 the user acknowledges that Gaussian, Inc. is engaged in the
 business of creating and licensing software in the field of
 computational chemistry and represents and warrants to the
 licensee that it is not a competitor of Gaussian, Inc. and that
 it will not use this program in any manner prohibited above.
 ---------------------------------------------------------------
  

 Cite this work as:
 Gaussian 16, Revision A.03,
 M. J. Frisch, G. W. Trucks, H. B. Schlegel, G. E. Scuseria, 
 M. A. Robb, J. R. Cheeseman, G. Scalmani, V. Barone, 
 G. A. Petersson, H. Nakatsuji, X. Li, M. Caricato, A. V. Marenich, 
 J. Bloino, B. G. Janesko, R. Gomperts, B. Mennucci, H. P. Hratchian, 
 J. V. Ortiz, A. F. Izmaylov, J. L. Sonnenberg, D. Williams-Young, 
 F. Ding, F. Lipparini, F. Egidi, J. Goings, B. Peng, A. Petrone, 
 T. Henderson, D. Ranasinghe, V. G. Zakrzewski, J. Gao, N. Rega, 
 G. Zheng, W. Liang, M. Hada, M. Ehara, K. Toyota, R. Fukuda, 
 J. Hasegawa, M. Ishida, T. Nakajima, Y. Honda, O. Kitao, H. Nakai, 
 T. Vreven, K. Throssell, J. A. Montgomery, Jr., J. E. Peralta, 
 F. Ogliaro, M. J. Bearpark, J. J. Heyd, E. N. Brothers, K. N. Kudin, 
 V. N. Staroverov, T. A. Keith, R. Kobayashi, J. Normand, 
 K. Raghavachari, A. P. Rendell, J. C. Burant, S. S. Iyengar, 
 J. Tomasi, M. Cossi, J. M. Millam, M. Klene, C. Adamo, R. Cammi, 
 J. W. Ochterski, R. L. Martin, K. Morokuma, O. Farkas, 
 J. B. Foresman, and D. J. Fox, Gaussian, Inc., Wallingford CT, 2016.
 
 ******************************************
 Gaussian 16:  ES64L-G16RevA.03 25-Dec-2016
                 5-Feb-2024 
 ******************************************
 %Chk=G6.chk
 %nprocshared=8
 Will use up to    8 processors via shared memory.
 %mem=1GB
 --------------------------------
 # B3LYP/6-31G** opt=Modredundant
 --------------------------------
 1/18=120,19=15,26=3,38=1/1,3;
 2/9=110,12=2,17=6,18=5,40=1/2;
 3/5=1,6=6,7=101,11=2,25=1,30=1,71=1,74=-5/1,2,3;
 4//1;
 5/5=2,38=5/2;
 6/7=2,8=2,9=2,10=2,28=1/1;
 7//1,2,3,16;
 1/18=20,19=15,26=3/3(2);
 2/9=110/2;
 99//99;
 2/9=110/2;
 3/5=1,6=6,7=101,11=2,25=1,30=1,71=1,74=-5/1,2,3;
 4/5=5,16=3,69=1/1;
 5/5=2,38=5/2;
 7//1,2,3,16;
 1/18=20,19=15,26=3/3(-5);
 2/9=110/2;
 6/7=2,8=2,9=2,10=2,19=2,28=1/1;
 99/9=1/99;
 --
 G6
 --
 Symbolic Z-matrix:
 Charge =  1 Multiplicity = 1
 C                    -4.2375   -6.5402   -2.8694 
 C                    -4.2183   -5.3839   -3.6492 
 C                    -3.1989   -6.7947   -1.9736 
 C                    -3.1606   -4.482    -3.5332 
 C                    -2.1412   -5.8928   -1.8577 
 C                    -2.122    -4.7364   -2.6375 
 C                     1.2969   -4.5196   -4.3446 
 C                     0.062    -3.7988   -4.8749 
 C                     0.9959   -5.3017   -3.0705 
 C                    -2.9317   -1.3421    0.518 
 C                    -2.7683   -0.7888   -0.8936 
 C                    -1.7473   -2.22      0.9076 
 C                    -0.6063   -2.9417   -3.7942 
 C                     0.3575   -4.4047   -2.0082 
 C                    -2.5203   -1.8962   -1.9078 
 C                    -1.5026   -3.322    -0.1131 
 C                    -0.956    -3.743    -2.5094 
 N                    -1.3202   -2.708    -1.4809 
 H                    -5.0618   -7.2418   -2.9589 
 H                    -5.0274   -5.185    -4.3459 
 H                    -3.2141   -7.6944   -1.3656 
 H                    -3.154    -3.5836   -4.145 
 H                    -1.3364   -6.0993   -1.1572 
 H                     1.6754   -5.2069   -5.1125 
 H                     2.0941   -3.7918   -4.1512 
 H                     0.3381   -3.1727   -5.7324 
 H                    -0.6581   -4.5372   -5.2491 
 H                     0.3199   -6.1279   -3.3025 
 H                     1.9174   -5.7424   -2.6832 
 H                    -3.0322   -0.5164    1.2313 
 H                    -3.8562   -1.9298    0.5751 
 H                    -3.6687   -0.2306   -1.1742 
 H                    -1.9345   -0.0761   -0.9154 
 H                    -0.8465   -1.6011    1.0041 
 H                    -1.9308   -2.6667    1.8913 
 H                     0.0394   -2.0971   -3.5496 
 H                    -1.5229   -2.52     -4.2136 
 H                     0.1377   -5.0165   -1.1335 
 H                     1.0697   -3.6454   -1.6929 
 H                    -3.3736   -2.5782   -1.9834 
 H                    -2.2978   -1.4741   -2.8924 
 H                    -0.5866   -3.8714    0.125 
 H                    -2.3457   -4.0184   -0.1709 
 H                    -0.5234   -2.0567   -1.4152 
 
 The following ModRedundant input section has been read:
 D    *       *       *       *    F                                           
 

 GradGradGradGradGradGradGradGradGradGradGradGradGradGradGradGradGradGrad
 Berny optimization.
 Initialization pass.
                           ----------------------------
                           !    Initial Parameters    !
                           ! (Angstroms and Degrees)  !
 --------------------------                            --------------------------
 ! Name  Definition              Value          Derivative Info.                !
 --------------------------------------------------------------------------------
 ! R1    R(1,2)                  1.3948         estimate D2E/DX2                !
 ! R2    R(1,3)                  1.395          estimate D2E/DX2                !
 ! R3    R(1,19)                 1.0862         estimate D2E/DX2                !
 ! R4    R(2,4)                  1.3949         estimate D2E/DX2                !
 ! R5    R(2,20)                 1.0861         estimate D2E/DX2                !
 ! R6    R(3,5)                  1.3948         estimate D2E/DX2                !
 ! R7    R(3,21)                 1.086          estimate D2E/DX2                !
 ! R8    R(4,6)                  1.3949         estimate D2E/DX2                !
 ! R9    R(4,22)                 1.087          estimate D2E/DX2                !
 ! R10   R(5,6)                  1.3949         estimate D2E/DX2                !
 ! R11   R(5,23)                 1.0868         estimate D2E/DX2                !
 ! R12   R(6,17)                 1.5371         estimate D2E/DX2                !
 ! R13   R(7,8)                  1.525          estimate D2E/DX2                !
 ! R14   R(7,9)                  1.525          estimate D2E/DX2                !
 ! R15   R(7,24)                 1.0979         estimate D2E/DX2                !
 ! R16   R(7,25)                 1.0966         estimate D2E/DX2                !
 ! R17   R(8,13)                 1.5327         estimate D2E/DX2                !
 ! R18   R(8,26)                 1.0971         estimate D2E/DX2                !
 ! R19   R(8,27)                 1.0972         estimate D2E/DX2                !
 ! R20   R(9,14)                 1.5299         estimate D2E/DX2                !
 ! R21   R(9,28)                 1.0924         estimate D2E/DX2                !
 ! R22   R(9,29)                 1.0924         estimate D2E/DX2                !
 ! R23   R(10,11)                1.5249         estimate D2E/DX2                !
 ! R24   R(10,12)                1.5249         estimate D2E/DX2                !
 ! R25   R(10,30)                1.0958         estimate D2E/DX2                !
 ! R26   R(10,31)                1.097          estimate D2E/DX2                !
 ! R27   R(11,15)                1.522          estimate D2E/DX2                !
 ! R28   R(11,32)                1.0959         estimate D2E/DX2                !
 ! R29   R(11,33)                1.0971         estimate D2E/DX2                !
 ! R30   R(12,16)                1.5219         estimate D2E/DX2                !
 ! R31   R(12,34)                1.0972         estimate D2E/DX2                !
 ! R32   R(12,35)                1.0958         estimate D2E/DX2                !
 ! R33   R(13,17)                1.5541         estimate D2E/DX2                !
 ! R34   R(13,36)                1.0909         estimate D2E/DX2                !
 ! R35   R(13,37)                1.0926         estimate D2E/DX2                !
 ! R36   R(14,17)                1.5538         estimate D2E/DX2                !
 ! R37   R(14,38)                1.0898         estimate D2E/DX2                !
 ! R38   R(14,39)                1.0877         estimate D2E/DX2                !
 ! R39   R(15,18)                1.5105         estimate D2E/DX2                !
 ! R40   R(15,40)                1.095          estimate D2E/DX2                !
 ! R41   R(15,41)                1.0941         estimate D2E/DX2                !
 ! R42   R(16,18)                1.5103         estimate D2E/DX2                !
 ! R43   R(16,42)                1.0943         estimate D2E/DX2                !
 ! R44   R(16,43)                1.095          estimate D2E/DX2                !
 ! R45   R(17,18)                1.5039         estimate D2E/DX2                !
 ! R46   R(18,44)                1.0312         estimate D2E/DX2                !
 ! A1    A(2,1,3)              120.0011         estimate D2E/DX2                !
 ! A2    A(2,1,19)             119.9917         estimate D2E/DX2                !
 ! A3    A(3,1,19)             120.0072         estimate D2E/DX2                !
 ! A4    A(1,2,4)              119.9981         estimate D2E/DX2                !
 ! A5    A(1,2,20)             120.0129         estimate D2E/DX2                !
 ! A6    A(4,2,20)             119.9889         estimate D2E/DX2                !
 ! A7    A(1,3,5)              119.998          estimate D2E/DX2                !
 ! A8    A(1,3,21)             120.0167         estimate D2E/DX2                !
 ! A9    A(5,3,21)             119.9853         estimate D2E/DX2                !
 ! A10   A(2,4,6)              120.0055         estimate D2E/DX2                !
 ! A11   A(2,4,22)             119.4869         estimate D2E/DX2                !
 ! A12   A(6,4,22)             120.5077         estimate D2E/DX2                !
 ! A13   A(3,5,6)              120.0021         estimate D2E/DX2                !
 ! A14   A(3,5,23)             119.4886         estimate D2E/DX2                !
 ! A15   A(6,5,23)             120.5093         estimate D2E/DX2                !
 ! A16   A(4,6,5)              119.9953         estimate D2E/DX2                !
 ! A17   A(4,6,17)             120.0297         estimate D2E/DX2                !
 ! A18   A(5,6,17)             119.975          estimate D2E/DX2                !
 ! A19   A(8,7,9)              111.9063         estimate D2E/DX2                !
 ! A20   A(8,7,24)             109.3805         estimate D2E/DX2                !
 ! A21   A(8,7,25)             109.6512         estimate D2E/DX2                !
 ! A22   A(9,7,24)             109.3512         estimate D2E/DX2                !
 ! A23   A(9,7,25)             109.6639         estimate D2E/DX2                !
 ! A24   A(24,7,25)            106.7505         estimate D2E/DX2                !
 ! A25   A(7,8,13)             111.8513         estimate D2E/DX2                !
 ! A26   A(7,8,26)             109.7396         estimate D2E/DX2                !
 ! A27   A(7,8,27)             109.3878         estimate D2E/DX2                !
 ! A28   A(13,8,26)            109.9817         estimate D2E/DX2                !
 ! A29   A(13,8,27)            109.3083         estimate D2E/DX2                !
 ! A30   A(26,8,27)            106.4203         estimate D2E/DX2                !
 ! A31   A(7,9,14)             111.21           estimate D2E/DX2                !
 ! A32   A(7,9,28)             109.4252         estimate D2E/DX2                !
 ! A33   A(7,9,29)             109.6701         estimate D2E/DX2                !
 ! A34   A(14,9,28)            109.4308         estimate D2E/DX2                !
 ! A35   A(14,9,29)            110.0198         estimate D2E/DX2                !
 ! A36   A(28,9,29)            106.9883         estimate D2E/DX2                !
 ! A37   A(11,10,12)           111.2332         estimate D2E/DX2                !
 ! A38   A(11,10,30)           109.8159         estimate D2E/DX2                !
 ! A39   A(11,10,31)           109.4433         estimate D2E/DX2                !
 ! A40   A(12,10,30)           109.8005         estimate D2E/DX2                !
 ! A41   A(12,10,31)           109.4422         estimate D2E/DX2                !
 ! A42   A(30,10,31)           107.0093         estimate D2E/DX2                !
 ! A43   A(10,11,15)           111.7341         estimate D2E/DX2                !
 ! A44   A(10,11,32)           109.4984         estimate D2E/DX2                !
 ! A45   A(10,11,33)           109.6049         estimate D2E/DX2                !
 ! A46   A(15,11,32)           109.503          estimate D2E/DX2                !
 ! A47   A(15,11,33)           109.6081         estimate D2E/DX2                !
 ! A48   A(32,11,33)           106.7648         estimate D2E/DX2                !
 ! A49   A(10,12,16)           111.7407         estimate D2E/DX2                !
 ! A50   A(10,12,34)           109.5977         estimate D2E/DX2                !
 ! A51   A(10,12,35)           109.5096         estimate D2E/DX2                !
 ! A52   A(16,12,34)           109.5991         estimate D2E/DX2                !
 ! A53   A(16,12,35)           109.4999         estimate D2E/DX2                !
 ! A54   A(34,12,35)           106.7661         estimate D2E/DX2                !
 ! A55   A(8,13,17)            113.1232         estimate D2E/DX2                !
 ! A56   A(8,13,36)            109.4485         estimate D2E/DX2                !
 ! A57   A(8,13,37)            108.1168         estimate D2E/DX2                !
 ! A58   A(17,13,36)           110.3051         estimate D2E/DX2                !
 ! A59   A(17,13,37)           109.1211         estimate D2E/DX2                !
 ! A60   A(36,13,37)           106.486          estimate D2E/DX2                !
 ! A61   A(9,14,17)            112.2379         estimate D2E/DX2                !
 ! A62   A(9,14,38)            108.1986         estimate D2E/DX2                !
 ! A63   A(9,14,39)            109.7142         estimate D2E/DX2                !
 ! A64   A(17,14,38)           109.1149         estimate D2E/DX2                !
 ! A65   A(17,14,39)           110.4701         estimate D2E/DX2                !
 ! A66   A(38,14,39)           106.9342         estimate D2E/DX2                !
 ! A67   A(11,15,18)           109.4011         estimate D2E/DX2                !
 ! A68   A(11,15,40)           111.8521         estimate D2E/DX2                !
 ! A69   A(11,15,41)           110.6156         estimate D2E/DX2                !
 ! A70   A(18,15,40)           107.6937         estimate D2E/DX2                !
 ! A71   A(18,15,41)           107.4639         estimate D2E/DX2                !
 ! A72   A(40,15,41)           109.6717         estimate D2E/DX2                !
 ! A73   A(12,16,18)           109.4166         estimate D2E/DX2                !
 ! A74   A(12,16,42)           110.6213         estimate D2E/DX2                !
 ! A75   A(12,16,43)           111.8454         estimate D2E/DX2                !
 ! A76   A(18,16,42)           107.4603         estimate D2E/DX2                !
 ! A77   A(18,16,43)           107.6808         estimate D2E/DX2                !
 ! A78   A(42,16,43)           109.6735         estimate D2E/DX2                !
 ! A79   A(6,17,13)            115.7866         estimate D2E/DX2                !
 ! A80   A(6,17,14)            113.135          estimate D2E/DX2                !
 ! A81   A(6,17,18)            108.5458         estimate D2E/DX2                !
 ! A82   A(13,17,14)           107.2194         estimate D2E/DX2                !
 ! A83   A(13,17,18)           105.3694         estimate D2E/DX2                !
 ! A84   A(14,17,18)           106.0932         estimate D2E/DX2                !
 ! A85   A(15,18,16)           112.2403         estimate D2E/DX2                !
 ! A86   A(15,18,17)           111.6543         estimate D2E/DX2                !
 ! A87   A(15,18,44)           107.0062         estimate D2E/DX2                !
 ! A88   A(16,18,17)           111.6425         estimate D2E/DX2                !
 ! A89   A(16,18,44)           107.0002         estimate D2E/DX2                !
 ! A90   A(17,18,44)           106.9249         estimate D2E/DX2                !
 ! D1    D(3,1,2,4)             -0.0047         Frozen                          !
 ! D2    D(3,1,2,20)          -179.9306         Frozen                          !
 ! D3    D(19,1,2,4)           179.9224         Frozen                          !
 ! D4    D(19,1,2,20)           -0.0035         Frozen                          !
 ! D5    D(2,1,3,5)              0.0013         Frozen                          !
 ! D6    D(2,1,3,21)           179.9376         Frozen                          !
 ! D7    D(19,1,3,5)          -179.9258         Frozen                          !
 ! D8    D(19,1,3,21)            0.0106         Frozen                          !
 ! D9    D(1,2,4,6)              0.0058         Frozen                          !
 ! D10   D(1,2,4,22)           179.9936         Frozen                          !
 ! D11   D(20,2,4,6)           179.9317         Frozen                          !
 ! D12   D(20,2,4,22)           -0.0805         Frozen                          !
 ! D13   D(1,3,5,6)              0.001          Frozen                          !
 ! D14   D(1,3,5,23)          -179.9992         Frozen                          !
 ! D15   D(21,3,5,6)          -179.9353         Frozen                          !
 ! D16   D(21,3,5,23)            0.0644         Frozen                          !
 ! D17   D(2,4,6,5)             -0.0034         Frozen                          !
 ! D18   D(2,4,6,17)           179.989          Frozen                          !
 ! D19   D(22,4,6,5)          -179.9911         Frozen                          !
 ! D20   D(22,4,6,17)            0.0013         Frozen                          !
 ! D21   D(3,5,6,4)              0.0            Frozen                          !
 ! D22   D(3,5,6,17)          -179.9924         Frozen                          !
 ! D23   D(23,5,6,4)          -179.9997         Frozen                          !
 ! D24   D(23,5,6,17)            0.0079         Frozen                          !
 ! D25   D(4,6,17,13)          -30.0057         Frozen                          !
 ! D26   D(4,6,17,14)         -154.3347         Frozen                          !
 ! D27   D(4,6,17,18)           88.1948         Frozen                          !
 ! D28   D(5,6,17,13)          149.9867         Frozen                          !
 ! D29   D(5,6,17,14)           25.6577         Frozen                          !
 ! D30   D(5,6,17,18)          -91.8128         Frozen                          !
 ! D31   D(9,7,8,13)            52.248          Frozen                          !
 ! D32   D(9,7,8,26)           174.5955         Frozen                          !
 ! D33   D(9,7,8,27)           -69.0027         Frozen                          !
 ! D34   D(24,7,8,13)          173.584          Frozen                          !
 ! D35   D(24,7,8,26)          -64.0686         Frozen                          !
 ! D36   D(24,7,8,27)           52.3332         Frozen                          !
 ! D37   D(25,7,8,13)          -69.6707         Frozen                          !
 ! D38   D(25,7,8,26)           52.6767         Frozen                          !
 ! D39   D(25,7,8,27)          169.0785         Frozen                          !
 ! D40   D(8,7,9,14)           -53.989          Frozen                          !
 ! D41   D(8,7,9,28)            67.024          Frozen                          !
 ! D42   D(8,7,9,29)          -175.9066         Frozen                          !
 ! D43   D(24,7,9,14)         -175.3419         Frozen                          !
 ! D44   D(24,7,9,28)          -54.3289         Frozen                          !
 ! D45   D(24,7,9,29)           62.7405         Frozen                          !
 ! D46   D(25,7,9,14)           67.9224         Frozen                          !
 ! D47   D(25,7,9,28)         -171.0646         Frozen                          !
 ! D48   D(25,7,9,29)          -53.9952         Frozen                          !
 ! D49   D(7,8,13,17)          -54.5447         Frozen                          !
 ! D50   D(7,8,13,36)           68.8874         Frozen                          !
 ! D51   D(7,8,13,37)         -175.5066         Frozen                          !
 ! D52   D(26,8,13,17)        -176.7537         Frozen                          !
 ! D53   D(26,8,13,36)         -53.3217         Frozen                          !
 ! D54   D(26,8,13,37)          62.2843         Frozen                          !
 ! D55   D(27,8,13,17)          66.752          Frozen                          !
 ! D56   D(27,8,13,36)        -169.8159         Frozen                          !
 ! D57   D(27,8,13,37)         -54.2099         Frozen                          !
 ! D58   D(7,9,14,17)           57.9463         Frozen                          !
 ! D59   D(7,9,14,38)          178.3988         Frozen                          !
 ! D60   D(7,9,14,39)          -65.2735         Frozen                          !
 ! D61   D(28,9,14,17)         -63.0634         Frozen                          !
 ! D62   D(28,9,14,38)          57.389          Frozen                          !
 ! D63   D(28,9,14,39)         173.7167         Frozen                          !
 ! D64   D(29,9,14,17)         179.6605         Frozen                          !
 ! D65   D(29,9,14,38)         -59.8871         Frozen                          !
 ! D66   D(29,9,14,39)          56.4406         Frozen                          !
 ! D67   D(12,10,11,15)         53.9695         Frozen                          !
 ! D68   D(12,10,11,32)        175.4645         Frozen                          !
 ! D69   D(12,10,11,33)        -67.7314         Frozen                          !
 ! D70   D(30,10,11,15)        175.725          Frozen                          !
 ! D71   D(30,10,11,32)        -62.78           Frozen                          !
 ! D72   D(30,10,11,33)         54.0241         Frozen                          !
 ! D73   D(31,10,11,15)        -67.0848         Frozen                          !
 ! D74   D(31,10,11,32)         54.4102         Frozen                          !
 ! D75   D(31,10,11,33)        171.2143         Frozen                          !
 ! D76   D(11,10,12,16)        -53.9533         Frozen                          !
 ! D77   D(11,10,12,34)         67.7357         Frozen                          !
 ! D78   D(11,10,12,35)       -175.4563         Frozen                          !
 ! D79   D(30,10,12,16)       -175.7178         Frozen                          !
 ! D80   D(30,10,12,34)        -54.0288         Frozen                          !
 ! D81   D(30,10,12,35)         62.7792         Frozen                          !
 ! D82   D(31,10,12,16)         67.1018         Frozen                          !
 ! D83   D(31,10,12,34)       -171.2093         Frozen                          !
 ! D84   D(31,10,12,35)        -54.4013         Frozen                          !
 ! D85   D(10,11,15,18)        -55.6401         Frozen                          !
 ! D86   D(10,11,15,40)         63.5955         Frozen                          !
 ! D87   D(10,11,15,41)       -173.832          Frozen                          !
 ! D88   D(32,11,15,18)       -177.1325         Frozen                          !
 ! D89   D(32,11,15,40)        -57.8968         Frozen                          !
 ! D90   D(32,11,15,41)         64.6757         Frozen                          !
 ! D91   D(33,11,15,18)         66.0589         Frozen                          !
 ! D92   D(33,11,15,40)       -174.7054         Frozen                          !
 ! D93   D(33,11,15,41)        -52.1329         Frozen                          !
 ! D94   D(10,12,16,18)         55.6139         Frozen                          !
 ! D95   D(10,12,16,42)        173.8143         Frozen                          !
 ! D96   D(10,12,16,43)        -63.6116         Frozen                          !
 ! D97   D(34,12,16,18)        -66.0742         Frozen                          !
 ! D98   D(34,12,16,42)         52.1261         Frozen                          !
 ! D99   D(34,12,16,43)        174.7003         Frozen                          !
 ! D100  D(35,12,16,18)        177.1226         Frozen                          !
 ! D101  D(35,12,16,42)        -64.6771         Frozen                          !
 ! D102  D(35,12,16,43)         57.897          Frozen                          !
 ! D103  D(8,13,17,6)          -71.683          Frozen                          !
 ! D104  D(8,13,17,14)          55.6582         Frozen                          !
 ! D105  D(8,13,17,18)         168.3741         Frozen                          !
 ! D106  D(36,13,17,6)         165.3583         Frozen                          !
 ! D107  D(36,13,17,14)        -67.3005         Frozen                          !
 ! D108  D(36,13,17,18)         45.4153         Frozen                          !
 ! D109  D(37,13,17,6)          48.7086         Frozen                          !
 ! D110  D(37,13,17,14)        176.0498         Frozen                          !
 ! D111  D(37,13,17,18)        -71.2344         Frozen                          !
 ! D112  D(9,14,17,6)           71.5811         Frozen                          !
 ! D113  D(9,14,17,13)         -57.298          Frozen                          !
 ! D114  D(9,14,17,18)        -169.5209         Frozen                          !
 ! D115  D(38,14,17,6)         -48.3394         Frozen                          !
 ! D116  D(38,14,17,13)       -177.2186         Frozen                          !
 ! D117  D(38,14,17,18)         70.5586         Frozen                          !
 ! D118  D(39,14,17,6)        -165.6246         Frozen                          !
 ! D119  D(39,14,17,13)         65.4962         Frozen                          !
 ! D120  D(39,14,17,18)        -46.7266         Frozen                          !
 ! D121  D(11,15,18,16)         58.7365         Frozen                          !
 ! D122  D(11,15,18,17)       -175.0311         Frozen                          !
 ! D123  D(11,15,18,44)        -58.3532         Frozen                          !
 ! D124  D(40,15,18,16)        -63.0373         Frozen                          !
 ! D125  D(40,15,18,17)         63.1952         Frozen                          !
 ! D126  D(40,15,18,44)        179.8731         Frozen                          !
 ! D127  D(41,15,18,16)        178.8774         Frozen                          !
 ! D128  D(41,15,18,17)        -54.8901         Frozen                          !
 ! D129  D(41,15,18,44)         61.7878         Frozen                          !
 ! D130  D(12,16,18,15)        -58.7254         Frozen                          !
 ! D131  D(12,16,18,17)        175.0358         Frozen                          !
 ! D132  D(12,16,18,44)         58.3678         Frozen                          !
 ! D133  D(42,16,18,15)       -178.8798         Frozen                          !
 ! D134  D(42,16,18,17)         54.8814         Frozen                          !
 ! D135  D(42,16,18,44)        -61.7866         Frozen                          !
 ! D136  D(43,16,18,15)         63.0415         Frozen                          !
 ! D137  D(43,16,18,17)        -63.1973         Frozen                          !
 ! D138  D(43,16,18,44)       -179.8653         Frozen                          !
 ! D139  D(6,17,18,15)         -63.2746         Frozen                          !
 ! D140  D(6,17,18,16)          63.2845         Frozen                          !
 ! D141  D(6,17,18,44)         179.9981         Frozen                          !
 ! D142  D(13,17,18,15)         61.342          Frozen                          !
 ! D143  D(13,17,18,16)       -172.0989         Frozen                          !
 ! D144  D(13,17,18,44)        -55.3853         Frozen                          !
 ! D145  D(14,17,18,15)        174.8474         Frozen                          !
 ! D146  D(14,17,18,16)        -58.5935         Frozen                          !
 ! D147  D(14,17,18,44)         58.1201         Frozen                          !
 --------------------------------------------------------------------------------
 Trust Radius=3.00D-01 FncErr=1.00D-07 GrdErr=1.00D-06 EigMax=2.50D+02 EigMin=1.00D-04
 Number of steps in this run=    264 maximum allowed number of steps=    264.
 GradGradGradGradGradGradGradGradGradGradGradGradGradGradGradGradGradGrad

                          Input orientation:                          
 ---------------------------------------------------------------------
 Center     Atomic      Atomic             Coordinates (Angstroms)
 Number     Number       Type             X           Y           Z
 ---------------------------------------------------------------------
      1          6           0       -4.237500   -6.540200   -2.869400
      2          6           0       -4.218300   -5.383900   -3.649200
      3          6           0       -3.198900   -6.794700   -1.973600
      4          6           0       -3.160600   -4.482000   -3.533200
      5          6           0       -2.141200   -5.892800   -1.857700
      6          6           0       -2.122000   -4.736400   -2.637500
      7          6           0        1.296900   -4.519600   -4.344600
      8          6           0        0.062000   -3.798800   -4.874900
      9          6           0        0.995900   -5.301700   -3.070500
     10          6           0       -2.931700   -1.342100    0.518000
     11          6           0       -2.768300   -0.788800   -0.893600
     12          6           0       -1.747300   -2.220000    0.907600
     13          6           0       -0.606300   -2.941700   -3.794200
     14          6           0        0.357500   -4.404700   -2.008200
     15          6           0       -2.520300   -1.896200   -1.907800
     16          6           0       -1.502600   -3.322000   -0.113100
     17          6           0       -0.956000   -3.743000   -2.509400
     18          7           0       -1.320200   -2.708000   -1.480900
     19          1           0       -5.061800   -7.241800   -2.958900
     20          1           0       -5.027400   -5.185000   -4.345900
     21          1           0       -3.214100   -7.694400   -1.365600
     22          1           0       -3.154000   -3.583600   -4.145000
     23          1           0       -1.336400   -6.099300   -1.157200
     24          1           0        1.675400   -5.206900   -5.112500
     25          1           0        2.094100   -3.791800   -4.151200
     26          1           0        0.338100   -3.172700   -5.732400
     27          1           0       -0.658100   -4.537200   -5.249100
     28          1           0        0.319900   -6.127900   -3.302500
     29          1           0        1.917400   -5.742400   -2.683200
     30          1           0       -3.032200   -0.516400    1.231300
     31          1           0       -3.856200   -1.929800    0.575100
     32          1           0       -3.668700   -0.230600   -1.174200
     33          1           0       -1.934500   -0.076100   -0.915400
     34          1           0       -0.846500   -1.601100    1.004100
     35          1           0       -1.930800   -2.666700    1.891300
     36          1           0        0.039400   -2.097100   -3.549600
     37          1           0       -1.522900   -2.520000   -4.213600
     38          1           0        0.137700   -5.016500   -1.133500
     39          1           0        1.069700   -3.645400   -1.692900
     40          1           0       -3.373600   -2.578200   -1.983400
     41          1           0       -2.297800   -1.474100   -2.892400
     42          1           0       -0.586600   -3.871400    0.125000
     43          1           0       -2.345700   -4.018400   -0.170900
     44          1           0       -0.523400   -2.056700   -1.415200
 ---------------------------------------------------------------------
                    Distance matrix (angstroms):
                    1          2          3          4          5
     1  C    0.000000
     2  C    1.394807   0.000000
     3  C    1.394962   2.416023   0.000000
     4  C    2.415891   1.394851   2.789695   0.000000
     5  C    2.416017   2.789766   1.394843   2.415954   0.000000
     6  C    2.789769   2.416044   2.416004   1.394879   1.394890
     7  C    6.073600   5.625658   5.568657   4.530904   4.459919
     8  C    5.479325   4.726082   5.293999   3.556975   4.282805
     9  C    5.381710   5.246859   4.585694   4.261747   3.414920
    10  C    6.340334   5.946179   6.000859   5.130652   5.194007
    11  C    6.256272   5.550745   6.117406   4.556437   5.231975
    12  C    6.255474   6.072934   5.597887   5.180228   4.614271
    13  C    5.195197   4.362558   4.988163   2.994177   3.849018
    14  C    5.139655   4.958796   4.285006   3.835183   2.912146
    15  C    5.043827   4.252026   4.945718   3.120620   4.014852
    16  C    5.043181   4.912277   4.289352   3.973871   3.171822
    17  C    4.326912   3.825480   3.824991   2.540580   2.539892
    18  N    5.012417   4.501216   4.524752   3.278122   3.310434
    19  H    1.086151   2.154019   2.154324   3.400129   3.400345
    20  H    2.154196   1.086092   3.400346   2.153981   3.875857
    21  H    2.154284   3.400244   1.085981   3.875676   2.153843
    22  H    3.397442   2.149333   3.876617   1.086952   3.404396
    23  H    3.397411   3.876494   2.149185   3.404224   1.086759
    24  H    6.463093   6.075218   6.011040   5.138732   5.062669
    25  H    7.020390   6.529409   6.463374   5.335745   5.254723
    26  H    6.361835   5.476304   6.305381   4.334934   5.344078
    27  H    4.742055   3.993946   4.720262   3.034776   3.941932
    28  H    4.596462   4.611832   3.820020   3.856953   2.863517
    29  H    6.209183   6.221615   5.271375   5.300678   4.144431
    30  H    7.386112   6.994188   7.050973   6.200236   6.264302
    31  H    5.767648   5.468696   5.531290   4.886278   4.956320
    32  H    6.558070   5.743186   6.629266   4.888502   5.904315
    33  H    7.134880   6.392351   6.917953   5.269550   5.896156
    34  H    7.134255   6.879812   6.432260   5.851644   5.318349
    35  H    6.556610   6.581259   5.795336   5.850891   4.950454
    36  H    6.204489   5.379682   5.919274   3.990992   4.693067
    37  H    5.033680   3.973116   5.108780   2.644702   4.160329
    38  H    4.947463   5.043656   3.873069   4.113761   2.546714
    39  H    6.158765   5.900206   5.312046   4.688501   3.922734
    40  H    4.150755   3.370513   4.220129   2.464083   3.538528
    41  H    5.424789   4.421267   5.474026   3.194137   4.540929
    42  H    5.423836   5.451742   4.446787   4.514503   3.230161
    43  H    4.149733   4.179688   3.418409   3.490566   2.529919
    44  H    6.000917   5.450991   5.469804   4.162070   4.186735
                    6          7          8          9         10
     6  C    0.000000
     7  C    3.827541   0.000000
     8  C    3.264186   1.525041   0.000000
     9  C    3.198180   1.524996   2.527199   0.000000
    10  C    4.704686   7.184876   6.639351   6.631878   0.000000
    11  C    4.363764   6.508004   5.737721   6.266926   1.524944
    12  C    4.363531   6.491604   6.261268   5.731256   1.524893
    13  C    2.618444   2.532761   1.532696   2.942853   5.153763
    14  C    2.579528   2.520801   2.944895   1.529917   5.155584
    15  C    2.959365   5.233664   4.369421   5.031199   2.522059
    16  C    2.959186   5.213160   5.034883   4.348325   2.522027
    17  C    1.537143   3.007761   2.575855   2.560135   4.339685
    18  N    2.468808   4.281575   3.823553   3.823405   2.908301
    19  H    3.875919   7.054332   6.463639   6.361774   7.171654
    20  H    3.400180   6.359208   5.301262   6.157955   6.543498
    21  H    3.400026   6.269204   6.182533   5.133790   6.631698
    22  H    2.160215   4.552631   3.304803   4.618234   5.178543
    23  H    2.160081   4.425973   4.590111   3.120337   5.289823
    24  H    4.557109   1.097868   2.154590   2.154175   8.237996
    25  H    4.578106   1.096642   2.157133   2.157256   7.284307
    26  H    4.251547   2.158570   1.097059   3.471463   7.287674
    27  H    3.000523   2.154172   1.097180   2.840154   6.974049
    28  H    2.888143   2.151077   2.821996   1.092431   6.933470
    29  H    4.163037   2.154184   3.467512   1.092419   7.288628
    30  H    5.796937   8.115256   7.591700   7.591454   1.095754
    31  H    4.604916   7.580564   6.967636   6.942837   1.096974
    32  H    4.983549   7.287259   6.351799   7.146363   2.154563
    33  H    4.971839   6.476577   5.789831   6.366993   2.156803
    34  H    4.971746   6.459133   6.341758   5.804416   2.156718
    35  H    4.982996   7.262075   7.143834   6.334687   2.154604
    36  H    3.531215   2.842857   2.157015   3.378445   5.093410
    37  H    2.784859   3.459311   2.141157   3.922867   5.075451
    38  H    2.728867   3.449901   3.935301   2.137713   5.064571
    39  H    3.502784   2.801314   3.341274   2.155588   5.119030
    40  H    2.579181   5.581923   4.653384   5.262297   2.824928
    41  H    3.276962   4.930094   3.860465   5.052791   3.471323
    42  H    3.276749   4.893369   5.042316   3.842042   3.471498
    43  H    2.578698   5.562329   5.288937   4.606607   2.824989
    44  H    3.351169   4.238013   3.917541   3.946937   3.169830
                   11         12         13         14         15
    11  C    0.000000
    12  C    2.516962   0.000000
    13  C    4.209834   4.891795   0.000000
    14  C    4.907921   4.207729   2.501814   0.000000
    15  C    1.521986   2.937491   2.883569   3.818951   0.000000
    16  C    2.937393   1.521877   3.807687   2.867685   2.507901
    17  C    3.823943   3.823817   1.554054   1.553812   2.493918
    18  N    2.474923   2.474973   2.432206   2.443668   1.510464
    19  H    7.153098   7.152217   6.248205   6.190459   6.011611
    20  H    6.028970   6.866553   4.988276   5.922065   4.800634
    21  H    6.936053   6.106390   5.940276   4.898100   5.864679
    22  H    4.304797   5.419131   2.650636   4.191748   2.872970
    23  H    5.506472   4.413752   4.178188   2.542669   4.430696
    24  H    7.554151   7.541754   3.474939   3.466564   6.231752
    25  H    6.578214   6.543574   2.853468   2.825575   5.469811
    26  H    6.224684   7.024680   2.168380   3.922737   4.942415
    27  H    6.121587   6.667888   2.159870   3.398887   4.648328
    28  H    6.621614   6.104911   3.354323   2.155469   5.283863
    29  H    7.049582   6.223437   3.930306   2.162950   5.923486
    30  H    2.158482   2.158241   6.084630   6.091248   3.466964
    31  H    2.154643   2.154584   5.538644   5.527552   2.819672
    32  H    1.095921   3.461702   4.857238   5.859092   2.152026
    33  H    1.097105   2.820404   4.273554   5.018392   2.154248
    34  H    2.820357   1.097174   4.987844   4.287626   3.371625
    35  H    3.461731   1.095846   5.844214   4.843868   3.921013
    36  H    4.080339   4.803544   1.090920   2.793227   3.047611
    37  H    3.945944   5.134885   1.092649   3.457136   2.588561
    38  H    5.135741   3.942046   3.455091   1.089822   4.171424
    39  H    4.850700   4.090214   2.778422   1.087741   3.999248
    40  H    2.180827   3.336321   3.327022   4.154254   1.094970
    41  H    2.164765   3.911447   2.414180   4.052264   1.094126
    42  H    3.911494   2.164904   4.028009   2.392964   3.431164
    43  H    3.336346   2.180708   4.160901   3.291229   2.747916
    44  H    2.630440   2.630589   2.539634   2.576963   2.063013
                   16         17         18         19         20
    16  C    0.000000
    17  C    2.493645   0.000000
    18  N    1.510345   1.503888   0.000000
    19  H    6.010933   5.413062   6.061303   0.000000
    20  H    5.814773   4.693442   5.299725   2.481004   0.000000
    21  H    4.859616   4.692638   5.335198   2.481420   4.297364
    22  H    4.364834   2.744412   3.350661   4.292897   2.472746
    23  H    2.971727   2.743228   3.406752   4.293022   4.962583
    24  H    6.216634   3.980377   5.329788   7.359937   6.746531
    25  H    5.428003   3.464246   4.467949   8.033118   7.259110
    26  H    5.914981   3.519612   4.587064   7.308132   5.895789
    27  H    5.344940   2.868005   4.240717   5.652650   4.508458
    28  H    4.622429   2.818630   4.207597   5.506499   5.529137
    29  H    4.915298   3.504887   4.597299   7.143770   7.162787
    30  H    3.466768   5.358581   3.884596   8.179735   7.542003
    31  H    2.819800   4.605757   3.356192   6.493071   6.015337
    32  H    3.921056   4.634485   3.427394   7.367687   6.037535
    33  H    3.371363   4.116364   2.761169   8.081037   6.887323
    34  H    2.154089   4.116359   2.761312   8.080323   7.677680
    35  H    2.151835   4.634093   3.427283   7.366080   7.404960
    36  H    3.960767   2.186738   2.549751   7.269051   5.986792
    37  H    4.178243   2.172879   2.746649   6.032701   4.404685
    38  H    2.569656   2.170503   2.752332   5.942966   6.084913
    39  H    3.035965   2.186243   2.575905   7.220259   6.825204
    40  H    2.748072   2.734634   2.117972   5.054778   3.887398
    41  H    3.430974   2.663649   2.114366   6.396130   4.830544
    42  H    1.094344   2.663270   2.114375   6.395111   6.437018
    43  H    1.095049   2.734171   2.117758   5.053756   5.097362
    44  H    2.062833   2.056216   1.031212   7.061540   6.217820
                   21         22         23         24         25
    21  H    0.000000
    22  H    4.962595   0.000000
    23  H    2.472556   4.308058   0.000000
    24  H    6.643352   5.185968   5.050912   0.000000
    25  H    7.153100   5.252232   5.104598   1.761226   0.000000
    26  H    7.220307   3.857906   5.683431   2.512094   2.442747
    27  H    5.619842   2.891004   4.432143   2.431539   3.055423
    28  H    4.323732   4.387625   2.710435   2.441664   3.053758
    29  H    5.646120   5.702313   3.611546   2.499364   2.447670
    30  H    7.635487   6.190893   6.304716   9.187279   8.122715
    31  H    6.116308   5.050493   5.170589   8.584100   7.823748
    32  H    7.480081   4.509232   6.315184   8.296576   7.399631
    33  H    7.738123   4.921387   6.057650   7.547989   6.364467
    34  H    6.953367   5.980643   5.014481   7.534890   6.326406
    35  H    6.126339   6.226865   4.629191   8.277108   7.346937
    36  H    6.832634   3.572392   4.861482   3.845778   2.730517
    37  H    6.143751   1.948445   4.710388   4.272771   3.834587
    38  H    4.296462   4.685896   1.829204   4.270037   3.799198
    39  H    5.903598   4.884287   3.478206   3.807731   2.667221
    40  H    5.155834   2.394069   4.151016   6.495670   6.005658
    41  H    6.470151   2.598476   5.032662   5.886337   5.122997
    42  H    4.872471   4.990719   2.677644   5.859318   5.047611
    43  H    3.961616   4.078709   2.514283   6.480832   5.967073
    44  H    6.247078   4.086966   4.131604   5.331839   4.165042
                   26         27         28         29         30
    26  H    0.000000
    27  H    1.757229   0.000000
    28  H    3.825958   2.697418   0.000000
    29  H    4.288959   3.830085   1.756175   0.000000
    30  H    8.179729   7.987413   7.954926   8.193469   0.000000
    31  H    7.676035   7.137765   7.078110   7.647672   1.762746
    32  H    6.744449   6.649461   7.430797   7.991341   2.504645
    33  H    6.160936   6.349139   6.885118   7.075960   2.450945
    34  H    7.018093   6.910766   6.356037   6.195619   2.450608
    35  H    7.970241   7.490250   6.634841   6.722695   2.504490
    36  H    2.451684   3.054324   4.048097   4.191151   5.898334
    37  H    2.489195   2.426775   4.152464   4.955971   5.994942
    38  H    4.958794   4.219146   2.443966   2.468974   5.990947
    39  H    4.132341   4.053043   3.052183   2.469149   5.930191
    40  H    5.308969   4.677223   5.289833   6.204560   3.834302
    41  H    4.230699   4.198242   5.355221   6.002505   4.296677
    42  H    5.970962   5.415658   4.202534   4.201981   4.296613
    43  H    6.232838   5.376361   4.621940   5.240024   3.834247
    44  H    4.541570   4.568349   4.565931   4.598882   3.958606
                   31         32         33         34         35
    31  H    0.000000
    32  H    2.445912   0.000000
    33  H    3.057895   1.760198   0.000000
    34  H    3.057839   3.819434   2.682135   0.000000
    35  H    2.445929   4.283943   3.819527   1.760208   0.000000
    36  H    5.675988   4.782923   3.862607   4.665514   5.814596
    37  H    5.359503   4.368497   4.125553   5.341001   6.120270
    38  H    5.329003   6.115160   5.361822   4.147643   4.353122
    39  H    5.687847   5.863646   4.729654   3.889061   4.775703
    40  H    2.683141   2.500623   3.077684   4.033127   4.135554
    41  H    3.828816   2.525445   2.448453   4.159941   4.943761
    42  H    3.829189   4.943954   4.159756   2.448393   2.525469
    43  H    2.683352   4.135743   4.033001   3.077591   2.500381
    44  H    3.883935   3.644946   2.482696   2.482937   3.644971
                   36         37         38         39         40
    36  H    0.000000
    37  H    1.749435   0.000000
    38  H    3.790791   4.298502   0.000000
    39  H    2.627943   3.787087   1.749705   0.000000
    40  H    3.785896   2.898667   4.358539   4.578889   0.000000
    41  H    2.506500   1.854709   4.644781   4.182511   1.789599
    42  H    4.128281   4.639654   1.849240   2.469649   3.726270
    43  H    4.560231   4.389263   2.844306   3.757735   2.532965
    44  H    2.207723   3.007439   3.045788   2.266948   2.952703
                   41         42         43         44
    41  H    0.000000
    42  H    4.216628   0.000000
    43  H    3.725898   1.789860   0.000000
    44  H    2.381184   2.381039   2.952512   0.000000
 Stoichiometry    C17H26N(1+)
 Framework group  C1[X(C17H26N)]
 Deg. of freedom   126
 Full point group                 C1      NOp   1
 Largest Abelian subgroup         C1      NOp   1
 Largest concise Abelian subgroup C1      NOp   1
                         Standard orientation:                         
 ---------------------------------------------------------------------
 Center     Atomic      Atomic             Coordinates (Angstroms)
 Number     Number       Type             X           Y           Z
 ---------------------------------------------------------------------
      1          6           0        1.501058    3.481795    0.016895
      2          6           0        1.266828    2.821220    1.222824
      3          6           0        1.361400    2.798552   -1.191241
      4          6           0        0.892845    1.477442    1.220713
      5          6           0        0.987485    1.454763   -1.193280
      6          6           0        0.753188    0.794140    0.012705
      7          6           0        2.772841   -2.457101   -0.009767
      8          6           0        2.293455   -1.791703    1.275995
      9          6           0        2.336582   -1.681886   -1.248449
     10          6           0       -3.910930    0.179049   -0.028892
     11          6           0       -3.267756   -0.380053    1.235697
     12          6           0       -3.244985   -0.380987   -1.281161
     13          6           0        0.786266   -1.514719    1.247340
     14          6           0        0.824018   -1.452169   -1.253407
     15          6           0       -1.761248   -0.163743    1.244741
     16          6           0       -1.738604   -0.165121   -1.263057
     17          6           0        0.341326   -0.686795    0.009740
     18          7           0       -1.160437   -0.765600   -0.003577
     19          1           0        1.791042    4.528518    0.018609
     20          1           0        1.374410    3.353298    2.163523
     21          1           0        1.542720    3.312893   -2.130353
     22          1           0        0.712485    0.970794    2.165300
     23          1           0        0.881131    0.930509   -2.139268
     24          1           0        3.868028   -2.532263    0.005346
     25          1           0        2.386369   -3.482116   -0.060826
     26          1           0        2.541821   -2.425693    2.136176
     27          1           0        2.833161   -0.847445    1.420557
     28          1           0        2.850597   -0.718270   -1.273710
     29          1           0        2.635088   -2.226522   -2.147141
     30          1           0       -4.980249   -0.059989   -0.038655
     31          1           0       -3.826600    1.272777   -0.028555
     32          1           0       -3.711659    0.100397    2.114993
     33          1           0       -3.486266   -1.452118    1.316750
     34          1           0       -3.462149   -1.453160   -1.365277
     35          1           0       -3.672627    0.098752   -2.168772
     36          1           0        0.242493   -2.459663    1.286062
     37          1           0        0.523850   -0.968478    2.156538
     38          1           0        0.570743   -0.872168   -2.140629
     39          1           0        0.308318   -2.405923   -1.340507
     40          1           0       -1.502334    0.900079    1.259130
     41          1           0       -1.305168   -0.665459    2.103451
     42          1           0       -1.266967   -0.667852   -2.113003
     43          1           0       -1.479261    0.898721   -1.273730
     44          1           0       -1.408527   -1.766522   -0.005343
 ---------------------------------------------------------------------
 Rotational constants (GHZ):           0.5046673           0.3835594           0.2909061
 Standard basis: 6-31G(d,p) (6D, 7F)
 There are   400 symmetry adapted cartesian basis functions of A   symmetry.
 There are   400 symmetry adapted basis functions of A   symmetry.
   400 basis functions,   686 primitive gaussians,   400 cartesian basis functions
    67 alpha electrons       67 beta electrons
       nuclear repulsion energy      1443.5974747552 Hartrees.
 NAtoms=   44 NActive=   44 NUniq=   44 SFac= 1.00D+00 NAtFMM=   60 NAOKFM=F Big=F
 Integral buffers will be    131072 words long.
 Raffenetti 2 integral format.
 Two-electron integral symmetry is turned on.
 One-electron integrals computed using PRISM.
 NBasis=   400 RedAO= T EigKep=  4.41D-04  NBF=   400
 NBsUse=   400 1.00D-06 EigRej= -1.00D+00 NBFU=   400
 ExpMin= 1.61D-01 ExpMax= 4.17D+03 ExpMxC= 6.27D+02 IAcc=3 IRadAn=         5 AccDes= 0.00D+00
 Harris functional with IExCor=  402 and IRadAn=       5 diagonalized for initial guess.
 HarFok:  IExCor=  402 AccDes= 0.00D+00 IRadAn=         5 IDoV= 1 UseB2=F ITyADJ=14
 ICtDFT=  3500011 ScaDFX=  1.000000  1.000000  1.000000  1.000000
 FoFCou: FMM=F IPFlag=           0 FMFlag=      100000 FMFlg1=           0
         NFxFlg=           0 DoJE=T BraDBF=F KetDBF=T FulRan=T
         wScrn=  0.000000 ICntrl=       500 IOpCl=  0 I1Cent=   200000004 NGrid=           0
         NMat0=    1 NMatS0=      1 NMatT0=    0 NMatD0=    1 NMtDS0=    0 NMtDT0=    0
 Petite list used in FoFCou.
 Requested convergence on RMS density matrix=1.00D-08 within 128 cycles.
 Requested convergence on MAX density matrix=1.00D-06.
 Requested convergence on             energy=1.00D-06.
 No special actions if energy rises.
 Integral accuracy reduced to 1.0D-05 until final iterations.
 Initial convergence to 1.0D-05 achieved.  Increase integral accuracy.
 SCF Done:  E(RB3LYP) =  -718.046104676     A.U. after   13 cycles
            NFock= 13  Conv=0.77D-08     -V/T= 2.0095

 **********************************************************************

            Population analysis using the SCF density.

 **********************************************************************

 Orbital symmetries:
       Occupied  (A) (A) (A) (A) (A) (A) (A) (A) (A) (A) (A) (A)
                 (A) (A) (A) (A) (A) (A) (A) (A) (A) (A) (A) (A)
                 (A) (A) (A) (A) (A) (A) (A) (A) (A) (A) (A) (A)
                 (A) (A) (A) (A) (A) (A) (A) (A) (A) (A) (A) (A)
                 (A) (A) (A) (A) (A) (A) (A) (A) (A) (A) (A) (A)
                 (A) (A) (A) (A) (A) (A) (A)
       Virtual   (A) (A) (A) (A) (A) (A) (A) (A) (A) (A) (A) (A)
                 (A) (A) (A) (A) (A) (A) (A) (A) (A) (A) (A) (A)
                 (A) (A) (A) (A) (A) (A) (A) (A) (A) (A) (A) (A)
                 (A) (A) (A) (A) (A) (A) (A) (A) (A) (A) (A) (A)
                 (A) (A) (A) (A) (A) (A) (A) (A) (A) (A) (A) (A)
                 (A) (A) (A) (A) (A) (A) (A) (A) (A) (A) (A) (A)
                 (A) (A) (A) (A) (A) (A) (A) (A) (A) (A) (A) (A)
                 (A) (A) (A) (A) (A) (A) (A) (A) (A) (A) (A) (A)
                 (A) (A) (A) (A) (A) (A) (A) (A) (A) (A) (A) (A)
                 (A) (A) (A) (A) (A) (A) (A) (A) (A) (A) (A) (A)
                 (A) (A) (A) (A) (A) (A) (A) (A) (A) (A) (A) (A)
                 (A) (A) (A) (A) (A) (A) (A) (A) (A) (A) (A) (A)
                 (A) (A) (A) (A) (A) (A) (A) (A) (A) (A) (A) (A)
                 (A) (A) (A) (A) (A) (A) (A) (A) (A) (A) (A) (A)
                 (A) (A) (A) (A) (A) (A) (A) (A) (A) (A) (A) (A)
                 (A) (A) (A) (A) (A) (A) (A) (A) (A) (A) (A) (A)
                 (A) (A) (A) (A) (A) (A) (A) (A) (A) (A) (A) (A)
                 (A) (A) (A) (A) (A) (A) (A) (A) (A) (A) (A) (A)
                 (A) (A) (A) (A) (A) (A) (A) (A) (A) (A) (A) (A)
                 (A) (A) (A) (A) (A) (A) (A) (A) (A) (A) (A) (A)
                 (A) (A) (A) (A) (A) (A) (A) (A) (A) (A) (A) (A)
                 (A) (A) (A) (A) (A) (A) (A) (A) (A) (A) (A) (A)
                 (A) (A) (A) (A) (A) (A) (A) (A) (A) (A) (A) (A)
                 (A) (A) (A) (A) (A) (A) (A) (A) (A) (A) (A) (A)
                 (A) (A) (A) (A) (A) (A) (A) (A) (A) (A) (A) (A)
                 (A) (A) (A) (A) (A) (A) (A) (A) (A) (A) (A) (A)
                 (A) (A) (A) (A) (A) (A) (A) (A) (A) (A) (A) (A)
                 (A) (A) (A) (A) (A) (A) (A) (A) (A)
 The electronic state is 1-A.
 Alpha  occ. eigenvalues --  -14.59655 -10.39105 -10.37904 -10.37896 -10.33041
 Alpha  occ. eigenvalues --  -10.32823 -10.32817 -10.32474 -10.32254 -10.31743
 Alpha  occ. eigenvalues --  -10.31708 -10.31606 -10.31110 -10.31098 -10.30897
 Alpha  occ. eigenvalues --  -10.29841 -10.29696 -10.28800  -1.16184  -0.99426
 Alpha  occ. eigenvalues --   -0.96692  -0.94068  -0.92775  -0.89181  -0.88168
 Alpha  occ. eigenvalues --   -0.86597  -0.85564  -0.81308  -0.79320  -0.77645
 Alpha  occ. eigenvalues --   -0.74150  -0.73108  -0.72454  -0.71611  -0.67918
 Alpha  occ. eigenvalues --   -0.66467  -0.64971  -0.64011  -0.63157  -0.60536
 Alpha  occ. eigenvalues --   -0.59293  -0.58646  -0.58074  -0.57945  -0.56991
 Alpha  occ. eigenvalues --   -0.56092  -0.55082  -0.54792  -0.54319  -0.53919
 Alpha  occ. eigenvalues --   -0.52402  -0.50978  -0.50934  -0.50784  -0.49490
 Alpha  occ. eigenvalues --   -0.48821  -0.47397  -0.46857  -0.46646  -0.46528
 Alpha  occ. eigenvalues --   -0.46439  -0.46250  -0.43761  -0.43560  -0.42184
 Alpha  occ. eigenvalues --   -0.37540  -0.37491
 Alpha virt. eigenvalues --   -0.13757  -0.12831  -0.09596  -0.06085  -0.04501
 Alpha virt. eigenvalues --   -0.02594  -0.02552  -0.01766  -0.01319  -0.01165
 Alpha virt. eigenvalues --    0.00200   0.00343   0.00661   0.01869   0.02025
 Alpha virt. eigenvalues --    0.02635   0.02754   0.03584   0.04780   0.04911
 Alpha virt. eigenvalues --    0.05349   0.05457   0.05562   0.06052   0.06182
 Alpha virt. eigenvalues --    0.06765   0.07535   0.07714   0.08147   0.08284
 Alpha virt. eigenvalues --    0.08721   0.09362   0.10518   0.10866   0.11503
 Alpha virt. eigenvalues --    0.12558   0.12587   0.13964   0.14913   0.16533
 Alpha virt. eigenvalues --    0.16556   0.17267   0.18021   0.18791   0.22384
 Alpha virt. eigenvalues --    0.23368   0.24146   0.32594   0.34182   0.35569
 Alpha virt. eigenvalues --    0.36816   0.37466   0.37951   0.39127   0.39817
 Alpha virt. eigenvalues --    0.40772   0.41582   0.41981   0.42108   0.42957
 Alpha virt. eigenvalues --    0.43787   0.44766   0.45101   0.46093   0.47002
 Alpha virt. eigenvalues --    0.47263   0.47897   0.49330   0.49931   0.50022
 Alpha virt. eigenvalues --    0.51013   0.51906   0.52185   0.54202   0.54494
 Alpha virt. eigenvalues --    0.55210   0.55956   0.57424   0.58288   0.58934
 Alpha virt. eigenvalues --    0.59446   0.59789   0.60921   0.63609   0.63842
 Alpha virt. eigenvalues --    0.64766   0.67697   0.68024   0.68245   0.68766
 Alpha virt. eigenvalues --    0.69856   0.70247   0.70987   0.71077   0.71720
 Alpha virt. eigenvalues --    0.72245   0.73567   0.74428   0.74920   0.75144
 Alpha virt. eigenvalues --    0.75697   0.75781   0.77021   0.77288   0.77545
 Alpha virt. eigenvalues --    0.78221   0.78697   0.79616   0.79914   0.80524
 Alpha virt. eigenvalues --    0.81981   0.82918   0.84660   0.85248   0.86241
 Alpha virt. eigenvalues --    0.87773   0.88429   0.89509   0.92176   0.92807
 Alpha virt. eigenvalues --    0.93522   0.95708   0.97468   0.97836   0.99967
 Alpha virt. eigenvalues --    1.00193   1.01769   1.03835   1.05095   1.06764
 Alpha virt. eigenvalues --    1.07223   1.10629   1.11530   1.13501   1.14119
 Alpha virt. eigenvalues --    1.15276   1.16236   1.21695   1.22854   1.25055
 Alpha virt. eigenvalues --    1.26262   1.26931   1.28359   1.29573   1.30160
 Alpha virt. eigenvalues --    1.30363   1.32766   1.34203   1.35378   1.36222
 Alpha virt. eigenvalues --    1.40733   1.43027   1.43975   1.47079   1.47130
 Alpha virt. eigenvalues --    1.50672   1.52051   1.54226   1.56291   1.58600
 Alpha virt. eigenvalues --    1.58954   1.61457   1.62067   1.62941   1.66591
 Alpha virt. eigenvalues --    1.67290   1.67692   1.68782   1.69156   1.71447
 Alpha virt. eigenvalues --    1.71674   1.72649   1.73047   1.73280   1.74265
 Alpha virt. eigenvalues --    1.75570   1.75799   1.76896   1.78964   1.79296
 Alpha virt. eigenvalues --    1.80855   1.81175   1.82045   1.82612   1.82704
 Alpha virt. eigenvalues --    1.83441   1.83902   1.85967   1.87116   1.88984
 Alpha virt. eigenvalues --    1.89372   1.91113   1.91340   1.93429   1.95151
 Alpha virt. eigenvalues --    1.95740   1.96825   1.98552   1.99002   2.00298
 Alpha virt. eigenvalues --    2.01114   2.01294   2.01991   2.02877   2.03067
 Alpha virt. eigenvalues --    2.04731   2.05506   2.06512   2.08461   2.09029
 Alpha virt. eigenvalues --    2.10326   2.11930   2.12839   2.14624   2.16560
 Alpha virt. eigenvalues --    2.16923   2.18245   2.18973   2.19841   2.20837
 Alpha virt. eigenvalues --    2.21480   2.21623   2.22029   2.24057   2.25261
 Alpha virt. eigenvalues --    2.26182   2.26845   2.27126   2.27530   2.27773
 Alpha virt. eigenvalues --    2.28180   2.29287   2.30630   2.32635   2.33877
 Alpha virt. eigenvalues --    2.34340   2.35553   2.37528   2.38380   2.38841
 Alpha virt. eigenvalues --    2.39284   2.40975   2.41403   2.42303   2.43895
 Alpha virt. eigenvalues --    2.45536   2.46623   2.46715   2.47558   2.48746
 Alpha virt. eigenvalues --    2.49596   2.52171   2.52419   2.53251   2.53650
 Alpha virt. eigenvalues --    2.56507   2.57858   2.58481   2.60528   2.60867
 Alpha virt. eigenvalues --    2.62126   2.63262   2.64441   2.65642   2.67053
 Alpha virt. eigenvalues --    2.67493   2.68228   2.70785   2.71125   2.71393
 Alpha virt. eigenvalues --    2.72261   2.75144   2.76250   2.76538   2.76899
 Alpha virt. eigenvalues --    2.78551   2.78839   2.79951   2.80786   2.81858
 Alpha virt. eigenvalues --    2.82135   2.83714   2.85126   2.87025   2.91019
 Alpha virt. eigenvalues --    2.92461   2.96686   3.04592   3.09196   3.12593
 Alpha virt. eigenvalues --    3.13069   3.13733   3.15057   3.15193   3.16228
 Alpha virt. eigenvalues --    3.18179   3.19935   3.20362   3.22338   3.23608
 Alpha virt. eigenvalues --    3.25624   3.27650   3.30737   3.33602   3.34123
 Alpha virt. eigenvalues --    3.36559   3.37270   3.37391   3.37909   3.39625
 Alpha virt. eigenvalues --    3.40173   3.41545   3.44060   3.46896   3.77895
 Alpha virt. eigenvalues --    4.02155   4.06435   4.07246   4.14988   4.20899
 Alpha virt. eigenvalues --    4.25291   4.26946   4.32272   4.37328   4.38244
 Alpha virt. eigenvalues --    4.40234   4.49587   4.59364   4.59665   4.63154
 Alpha virt. eigenvalues --    4.66183   4.66787   4.75919
          Condensed to atoms (all electrons):
               1          2          3          4          5          6
     1  C    4.784802   0.545426   0.544902  -0.040418  -0.040134  -0.035848
     2  C    0.545426   4.814177  -0.027714   0.518849  -0.044269  -0.024996
     3  C    0.544902  -0.027714   4.816039  -0.044451   0.518898  -0.025857
     4  C   -0.040418   0.518849  -0.044451   4.915347  -0.050088   0.530016
     5  C   -0.040134  -0.044269   0.518898  -0.050088   4.911496   0.531837
     6  C   -0.035848  -0.024996  -0.025857   0.530016   0.531837   4.874272
     7  C   -0.000001   0.000007   0.000010   0.000026   0.000087  -0.002032
     8  C    0.000004  -0.000130   0.000012  -0.002810   0.000260  -0.002032
     9  C    0.000007   0.000014  -0.000189   0.000261  -0.004592  -0.003221
    10  C    0.000000   0.000000   0.000000  -0.000003  -0.000002  -0.000125
    11  C   -0.000001   0.000006  -0.000002   0.000337  -0.000001   0.000482
    12  C   -0.000001  -0.000002   0.000007  -0.000001   0.000283   0.000452
    13  C   -0.000015   0.000397  -0.000105  -0.007568   0.003444  -0.045918
    14  C   -0.000021  -0.000120   0.000516   0.003830  -0.007472  -0.048886
    15  C    0.000008  -0.000624   0.000022  -0.005458   0.000086  -0.009763
    16  C    0.000004   0.000028  -0.000524   0.000014  -0.004520  -0.009338
    17  C    0.000102   0.007089   0.007269  -0.052838  -0.052486   0.293585
    18  N    0.000032   0.000005  -0.000016  -0.001675  -0.001631  -0.065529
    19  H    0.375197  -0.037941  -0.037811   0.004671   0.004690   0.000709
    20  H   -0.035997   0.371163   0.004234  -0.035216   0.000873   0.003743
    21  H   -0.036074   0.004212   0.371228   0.000883  -0.035115   0.003760
    22  H    0.004671  -0.033060   0.000288   0.373369   0.005039  -0.051669
    23  H    0.004663   0.000291  -0.032618   0.005132   0.373262  -0.050540
    24  H    0.000000  -0.000000  -0.000000  -0.000001  -0.000001   0.000029
    25  H    0.000000  -0.000000  -0.000000  -0.000004  -0.000006   0.000149
    26  H   -0.000000   0.000003  -0.000000   0.000061  -0.000001  -0.000111
    27  H    0.000008  -0.000152  -0.000057   0.002640   0.000122   0.006735
    28  H    0.000016  -0.000077  -0.000259   0.000167   0.003443   0.007984
    29  H   -0.000000  -0.000000   0.000005  -0.000000   0.000098  -0.000094
    30  H    0.000000  -0.000000   0.000000   0.000000   0.000000   0.000001
    31  H   -0.000000   0.000002   0.000001  -0.000019  -0.000015  -0.000030
    32  H   -0.000000  -0.000000   0.000000   0.000016   0.000000   0.000007
    33  H    0.000000   0.000000   0.000000  -0.000010  -0.000000  -0.000015
    34  H    0.000000   0.000000   0.000000  -0.000001  -0.000009  -0.000015
    35  H   -0.000000   0.000000  -0.000000   0.000000   0.000012   0.000008
    36  H    0.000000  -0.000010   0.000001  -0.000012  -0.000069   0.006275
    37  H   -0.000011   0.000238   0.000010   0.003145  -0.000285  -0.014642
    38  H   -0.000019   0.000013   0.000437  -0.000331   0.002341  -0.016513
    39  H    0.000001   0.000001  -0.000016  -0.000077   0.000017   0.006775
    40  H   -0.000032   0.001218  -0.000125   0.007628  -0.000406   0.007278
    41  H   -0.000001   0.000018   0.000000  -0.000015  -0.000052  -0.001293
    42  H   -0.000001   0.000000   0.000005  -0.000046   0.000086  -0.001175
    43  H   -0.000033  -0.000118   0.001033  -0.000420   0.006854   0.007904
    44  H   -0.000000   0.000005   0.000005  -0.000207  -0.000197   0.006481
               7          8          9         10         11         12
     1  C   -0.000001   0.000004   0.000007   0.000000  -0.000001  -0.000001
     2  C    0.000007  -0.000130   0.000014   0.000000   0.000006  -0.000002
     3  C    0.000010   0.000012  -0.000189   0.000000  -0.000002   0.000007
     4  C    0.000026  -0.002810   0.000261  -0.000003   0.000337  -0.000001
     5  C    0.000087   0.000260  -0.004592  -0.000002  -0.000001   0.000283
     6  C   -0.002032  -0.002032  -0.003221  -0.000125   0.000482   0.000452
     7  C    4.894210   0.378265   0.377223  -0.000000   0.000000   0.000000
     8  C    0.378265   4.906134  -0.047052   0.000000  -0.000008   0.000002
     9  C    0.377223  -0.047052   4.910393   0.000000   0.000002  -0.000009
    10  C   -0.000000   0.000000   0.000000   4.909695   0.369543   0.369350
    11  C    0.000000  -0.000008   0.000002   0.369543   4.960079  -0.046519
    12  C    0.000000   0.000002  -0.000009   0.369350  -0.046519   4.959889
    13  C   -0.043794   0.365143  -0.015134  -0.000006   0.000084  -0.000202
    14  C   -0.043332  -0.015115   0.365253  -0.000005  -0.000201   0.000110
    15  C   -0.000016   0.000487  -0.000074  -0.041961   0.348189  -0.014886
    16  C   -0.000017  -0.000075   0.000529  -0.041988  -0.014957   0.348790
    17  C   -0.014997  -0.032541  -0.032427  -0.000158   0.004518   0.004632
    18  N    0.000079   0.003037   0.003078  -0.008842  -0.042795  -0.042839
    19  H   -0.000000   0.000000   0.000000  -0.000000  -0.000000  -0.000000
    20  H    0.000000  -0.000001  -0.000000   0.000000   0.000000  -0.000000
    21  H    0.000000  -0.000000  -0.000004   0.000000  -0.000000   0.000000
    22  H   -0.000029  -0.000291  -0.000001   0.000001   0.000077  -0.000001
    23  H   -0.000044  -0.000003  -0.000577   0.000000  -0.000001   0.000044
    24  H    0.385753  -0.031134  -0.031609   0.000000  -0.000000  -0.000000
    25  H    0.387448  -0.041809  -0.041582   0.000000  -0.000000  -0.000000
    26  H   -0.030753   0.384802   0.004888  -0.000000  -0.000000  -0.000000
    27  H   -0.037350   0.387622  -0.003719   0.000000  -0.000000  -0.000000
    28  H   -0.037210  -0.003780   0.387760   0.000000  -0.000000  -0.000000
    29  H   -0.030440   0.004875   0.385430  -0.000000  -0.000000  -0.000000
    30  H    0.000000  -0.000000  -0.000000   0.390338  -0.030590  -0.030583
    31  H    0.000000  -0.000000  -0.000000   0.388650  -0.040904  -0.040955
    32  H   -0.000000   0.000000  -0.000000  -0.027799   0.388357   0.004684
    33  H    0.000000  -0.000001  -0.000000  -0.041704   0.385315  -0.003894
    34  H    0.000000  -0.000000  -0.000001  -0.041719  -0.003897   0.385431
    35  H   -0.000000  -0.000000   0.000000  -0.027792   0.004684   0.388358
    36  H   -0.003292  -0.032282  -0.000386   0.000004  -0.000152  -0.000016
    37  H    0.004567  -0.027483   0.000171  -0.000011   0.000077   0.000003
    38  H    0.004738   0.000207  -0.029262  -0.000011   0.000002   0.000099
    39  H   -0.003980  -0.000443  -0.032076   0.000003  -0.000012  -0.000143
    40  H   -0.000000  -0.000026   0.000000  -0.003963  -0.028780  -0.000864
    41  H    0.000004   0.000118  -0.000008   0.003806  -0.030416   0.000107
    42  H    0.000001  -0.000009   0.000163   0.003799   0.000112  -0.030412
    43  H   -0.000001   0.000000  -0.000024  -0.003927  -0.000826  -0.029005
    44  H   -0.000013  -0.000158  -0.000142  -0.001407  -0.001166  -0.001121
              13         14         15         16         17         18
     1  C   -0.000015  -0.000021   0.000008   0.000004   0.000102   0.000032
     2  C    0.000397  -0.000120  -0.000624   0.000028   0.007089   0.000005
     3  C   -0.000105   0.000516   0.000022  -0.000524   0.007269  -0.000016
     4  C   -0.007568   0.003830  -0.005458   0.000014  -0.052838  -0.001675
     5  C    0.003444  -0.007472   0.000086  -0.004520  -0.052486  -0.001631
     6  C   -0.045918  -0.048886  -0.009763  -0.009338   0.293585  -0.065529
     7  C   -0.043794  -0.043332  -0.000016  -0.000017  -0.014997   0.000079
     8  C    0.365143  -0.015115   0.000487  -0.000075  -0.032541   0.003037
     9  C   -0.015134   0.365253  -0.000074   0.000529  -0.032427   0.003078
    10  C   -0.000006  -0.000005  -0.041961  -0.041988  -0.000158  -0.008842
    11  C    0.000084  -0.000201   0.348189  -0.014957   0.004518  -0.042795
    12  C   -0.000202   0.000110  -0.014886   0.348790   0.004632  -0.042839
    13  C    5.032465  -0.060622  -0.011960   0.005498   0.365324  -0.056328
    14  C   -0.060622   5.034329   0.005376  -0.012129   0.366650  -0.052987
    15  C   -0.011960   0.005376   4.982806  -0.033014  -0.034482   0.221956
    16  C    0.005498  -0.012129  -0.033014   4.979595  -0.034241   0.221644
    17  C    0.365324   0.366650  -0.034482  -0.034241   5.199966   0.162713
    18  N   -0.056328  -0.052987   0.221956   0.221644   0.162713   6.954591
    19  H   -0.000000  -0.000000  -0.000000  -0.000000   0.000007   0.000000
    20  H    0.000006   0.000002  -0.000003   0.000000  -0.000182  -0.000000
    21  H    0.000002   0.000013   0.000000  -0.000002  -0.000181  -0.000000
    22  H   -0.000853   0.000012   0.000221   0.000071  -0.011399   0.000142
    23  H   -0.000015  -0.001958   0.000058  -0.000010  -0.012746   0.000296
    24  H    0.004993   0.005053   0.000000   0.000000   0.000439   0.000004
    25  H   -0.004784  -0.005618   0.000001   0.000001  -0.001128  -0.000027
    26  H   -0.030141   0.000218  -0.000001   0.000002   0.004527  -0.000083
    27  H   -0.038590  -0.000996  -0.000033   0.000002  -0.009591   0.000092
    28  H   -0.001037  -0.038965   0.000002  -0.000038  -0.011054   0.000120
    29  H    0.000231  -0.030719   0.000002   0.000001   0.004572  -0.000085
    30  H   -0.000000  -0.000000   0.004809   0.004802   0.000011   0.000125
    31  H   -0.000001  -0.000001  -0.004372  -0.004295  -0.000044  -0.000998
    32  H    0.000007   0.000003  -0.029760   0.000140  -0.000093   0.003574
    33  H   -0.000033  -0.000009  -0.040544  -0.000558  -0.000128  -0.005920
    34  H   -0.000011  -0.000033  -0.000569  -0.040622  -0.000120  -0.005921
    35  H    0.000003   0.000007   0.000141  -0.029772  -0.000095   0.003579
    36  H    0.372389  -0.006713  -0.001790   0.000124  -0.038746  -0.005279
    37  H    0.374732   0.005517  -0.004348  -0.000270  -0.028708  -0.003453
    38  H    0.005532   0.375896  -0.000272  -0.004065  -0.027396  -0.003915
    39  H   -0.006482   0.372518   0.000085  -0.002025  -0.039122  -0.004555
    40  H   -0.001068   0.000038   0.384077  -0.002376  -0.005009  -0.036934
    41  H    0.005743   0.000199   0.395804   0.003049  -0.005828  -0.037528
    42  H    0.000206   0.005591   0.003021   0.395985  -0.006401  -0.037151
    43  H    0.000041  -0.001351  -0.002477   0.384944  -0.004820  -0.036894
    44  H   -0.005294  -0.005415  -0.029264  -0.029030  -0.023068   0.318668
              19         20         21         22         23         24
     1  C    0.375197  -0.035997  -0.036074   0.004671   0.004663   0.000000
     2  C   -0.037941   0.371163   0.004212  -0.033060   0.000291  -0.000000
     3  C   -0.037811   0.004234   0.371228   0.000288  -0.032618  -0.000000
     4  C    0.004671  -0.035216   0.000883   0.373369   0.005132  -0.000001
     5  C    0.004690   0.000873  -0.035115   0.005039   0.373262  -0.000001
     6  C    0.000709   0.003743   0.003760  -0.051669  -0.050540   0.000029
     7  C   -0.000000   0.000000   0.000000  -0.000029  -0.000044   0.385753
     8  C    0.000000  -0.000001  -0.000000  -0.000291  -0.000003  -0.031134
     9  C    0.000000  -0.000000  -0.000004  -0.000001  -0.000577  -0.031609
    10  C   -0.000000   0.000000   0.000000   0.000001   0.000000   0.000000
    11  C   -0.000000   0.000000  -0.000000   0.000077  -0.000001  -0.000000
    12  C   -0.000000  -0.000000   0.000000  -0.000001   0.000044  -0.000000
    13  C   -0.000000   0.000006   0.000002  -0.000853  -0.000015   0.004993
    14  C   -0.000000   0.000002   0.000013   0.000012  -0.001958   0.005053
    15  C   -0.000000  -0.000003   0.000000   0.000221   0.000058   0.000000
    16  C   -0.000000   0.000000  -0.000002   0.000071  -0.000010   0.000000
    17  C    0.000007  -0.000182  -0.000181  -0.011399  -0.012746   0.000439
    18  N    0.000000  -0.000000  -0.000000   0.000142   0.000296   0.000004
    19  H    0.574054  -0.005410  -0.005397  -0.000171  -0.000171  -0.000000
    20  H   -0.005410   0.577580  -0.000168  -0.005414   0.000015  -0.000000
    21  H   -0.005397  -0.000168   0.577190   0.000015  -0.005412  -0.000000
    22  H   -0.000171  -0.005414   0.000015   0.615554  -0.000159   0.000001
    23  H   -0.000171   0.000015  -0.005412  -0.000159   0.615085   0.000002
    24  H   -0.000000  -0.000000  -0.000000   0.000001   0.000002   0.587609
    25  H    0.000000  -0.000000  -0.000000   0.000001   0.000001  -0.031610
    26  H   -0.000000  -0.000000   0.000000   0.000022   0.000000  -0.002076
    27  H    0.000000  -0.000001  -0.000000   0.000559   0.000011  -0.005439
    28  H    0.000000  -0.000000   0.000001   0.000013   0.000781  -0.005077
    29  H   -0.000000   0.000000  -0.000000   0.000000   0.000064  -0.002325
    30  H   -0.000000   0.000000   0.000000   0.000000   0.000000  -0.000000
    31  H    0.000000   0.000000   0.000000  -0.000001  -0.000001  -0.000000
    32  H    0.000000  -0.000000  -0.000000   0.000001  -0.000000  -0.000000
    33  H    0.000000  -0.000000   0.000000  -0.000003  -0.000000  -0.000000
    34  H    0.000000   0.000000  -0.000000  -0.000000  -0.000002  -0.000000
    35  H    0.000000  -0.000000  -0.000000  -0.000000   0.000001  -0.000000
    36  H   -0.000000  -0.000000  -0.000000   0.000046  -0.000000  -0.000043
    37  H   -0.000000   0.000010   0.000000   0.001502  -0.000001  -0.000163
    38  H   -0.000000   0.000000   0.000014  -0.000003   0.000227  -0.000174
    39  H   -0.000000  -0.000000  -0.000000  -0.000000   0.000158  -0.000018
    40  H    0.000001   0.000003  -0.000001  -0.000962  -0.000002  -0.000000
    41  H    0.000000  -0.000000  -0.000000  -0.000984  -0.000001  -0.000000
    42  H    0.000000  -0.000000  -0.000000  -0.000002  -0.001056  -0.000000
    43  H    0.000001  -0.000001   0.000001  -0.000004  -0.000569  -0.000000
    44  H    0.000000  -0.000000  -0.000000  -0.000070  -0.000052  -0.000000
              25         26         27         28         29         30
     1  C    0.000000  -0.000000   0.000008   0.000016  -0.000000   0.000000
     2  C   -0.000000   0.000003  -0.000152  -0.000077  -0.000000  -0.000000
     3  C   -0.000000  -0.000000  -0.000057  -0.000259   0.000005   0.000000
     4  C   -0.000004   0.000061   0.002640   0.000167  -0.000000   0.000000
     5  C   -0.000006  -0.000001   0.000122   0.003443   0.000098   0.000000
     6  C    0.000149  -0.000111   0.006735   0.007984  -0.000094   0.000001
     7  C    0.387448  -0.030753  -0.037350  -0.037210  -0.030440   0.000000
     8  C   -0.041809   0.384802   0.387622  -0.003780   0.004875  -0.000000
     9  C   -0.041582   0.004888  -0.003719   0.387760   0.385430  -0.000000
    10  C    0.000000  -0.000000   0.000000   0.000000  -0.000000   0.390338
    11  C   -0.000000  -0.000000  -0.000000  -0.000000  -0.000000  -0.030590
    12  C   -0.000000  -0.000000  -0.000000  -0.000000  -0.000000  -0.030583
    13  C   -0.004784  -0.030141  -0.038590  -0.001037   0.000231  -0.000000
    14  C   -0.005618   0.000218  -0.000996  -0.038965  -0.030719  -0.000000
    15  C    0.000001  -0.000001  -0.000033   0.000002   0.000002   0.004809
    16  C    0.000001   0.000002   0.000002  -0.000038   0.000001   0.004802
    17  C   -0.001128   0.004527  -0.009591  -0.011054   0.004572   0.000011
    18  N   -0.000027  -0.000083   0.000092   0.000120  -0.000085   0.000125
    19  H    0.000000  -0.000000   0.000000   0.000000  -0.000000  -0.000000
    20  H   -0.000000  -0.000000  -0.000001  -0.000000   0.000000   0.000000
    21  H   -0.000000   0.000000  -0.000000   0.000001  -0.000000   0.000000
    22  H    0.000001   0.000022   0.000559   0.000013   0.000000   0.000000
    23  H    0.000001   0.000000   0.000011   0.000781   0.000064   0.000000
    24  H   -0.031610  -0.002076  -0.005439  -0.005077  -0.002325  -0.000000
    25  H    0.624135  -0.005624   0.005758   0.005749  -0.005323  -0.000000
    26  H   -0.005624   0.587568  -0.031696  -0.000062  -0.000166  -0.000000
    27  H    0.005758  -0.031696   0.597935   0.004018  -0.000060  -0.000000
    28  H    0.005749  -0.000062   0.004018   0.595868  -0.031203   0.000000
    29  H   -0.005323  -0.000166  -0.000060  -0.031203   0.586620  -0.000000
    30  H   -0.000000  -0.000000  -0.000000   0.000000  -0.000000   0.563647
    31  H   -0.000000   0.000000  -0.000000  -0.000000   0.000000  -0.028935
    32  H    0.000000  -0.000000  -0.000000  -0.000000   0.000000  -0.002772
    33  H   -0.000000   0.000000   0.000000  -0.000000   0.000000  -0.005082
    34  H   -0.000000   0.000000  -0.000000   0.000000   0.000000  -0.005085
    35  H    0.000000   0.000000   0.000000  -0.000000  -0.000000  -0.002775
    36  H    0.004288  -0.005470   0.005894   0.000143  -0.000032  -0.000000
    37  H   -0.000067  -0.002990  -0.006053  -0.000037   0.000011   0.000000
    38  H   -0.000053   0.000011  -0.000029  -0.005695  -0.003609   0.000000
    39  H    0.004762  -0.000041   0.000141   0.005962  -0.004794  -0.000000
    40  H    0.000000  -0.000001   0.000002  -0.000000  -0.000000  -0.000043
    41  H   -0.000000   0.000001   0.000014  -0.000000   0.000000  -0.000139
[...]
    14  C   -0.000000   0.000002   0.000013   0.000043  -0.001431   0.004954
    15  C   -0.000000  -0.000003   0.000000   0.000239   0.000033   0.000000
    16  C   -0.000000   0.000000  -0.000002   0.000043   0.000028   0.000000
    17  C    0.000007  -0.000171  -0.000177  -0.011303  -0.012135   0.000434
    18  N    0.000000  -0.000000   0.000000   0.000130   0.000225   0.000003
    19  H    0.573410  -0.005346  -0.005453  -0.000172  -0.000167  -0.000000
    20  H   -0.005346   0.577006  -0.000168  -0.005384   0.000015  -0.000000
    21  H   -0.005453  -0.000168   0.578220   0.000015  -0.005425  -0.000000
    22  H   -0.000172  -0.005384   0.000015   0.613317  -0.000153   0.000001
    23  H   -0.000167   0.000015  -0.005425  -0.000153   0.610778   0.000002
    24  H   -0.000000  -0.000000  -0.000000   0.000001   0.000002   0.586554
    25  H    0.000000  -0.000000  -0.000000   0.000001   0.000001  -0.031677
    26  H   -0.000000  -0.000000   0.000000   0.000023   0.000000  -0.001948
    27  H    0.000000  -0.000001  -0.000000   0.000532   0.000010  -0.005344
    28  H    0.000000  -0.000000   0.000000   0.000012   0.000739  -0.004977
    29  H   -0.000000   0.000000  -0.000000   0.000000   0.000062  -0.002189
    30  H   -0.000000   0.000000   0.000000   0.000000   0.000000  -0.000000
    31  H    0.000000   0.000000   0.000000  -0.000001  -0.000000  -0.000000
    32  H    0.000000  -0.000000  -0.000000   0.000000  -0.000000  -0.000000
    33  H    0.000000  -0.000000   0.000000  -0.000001  -0.000000  -0.000000
    34  H    0.000000   0.000000  -0.000000  -0.000000  -0.000001  -0.000000
    35  H    0.000000  -0.000000  -0.000000  -0.000000   0.000000  -0.000000
    36  H   -0.000000  -0.000000  -0.000000   0.000024  -0.000001  -0.000038
    37  H   -0.000000   0.000011   0.000000   0.001940  -0.000001  -0.000160
    38  H   -0.000000   0.000000   0.000014  -0.000002   0.000700  -0.000169
    39  H   -0.000000  -0.000000  -0.000000  -0.000000   0.000117  -0.000012
    40  H    0.000000   0.000002  -0.000001  -0.000339  -0.000000  -0.000000
    41  H    0.000000  -0.000000  -0.000000  -0.000581  -0.000001  -0.000000
    42  H    0.000000  -0.000000  -0.000000  -0.000002  -0.000658  -0.000000
    43  H    0.000000  -0.000001   0.000001  -0.000002  -0.000173  -0.000000
    44  H    0.000000  -0.000000  -0.000000  -0.000041  -0.000029  -0.000000
              25         26         27         28         29         30
     1  C    0.000000  -0.000000   0.000009   0.000016  -0.000000   0.000000
     2  C   -0.000000   0.000003  -0.000150  -0.000070  -0.000000  -0.000000
     3  C   -0.000000  -0.000000  -0.000053  -0.000249   0.000004   0.000000
     4  C   -0.000004   0.000062   0.002632   0.000108   0.000001  -0.000000
     5  C   -0.000006  -0.000000   0.000077   0.003426   0.000098  -0.000000
     6  C    0.000141  -0.000095   0.006595   0.007643  -0.000074   0.000001
     7  C    0.387313  -0.030468  -0.037268  -0.037147  -0.030168   0.000000
     8  C   -0.041412   0.385182   0.387036  -0.003676   0.004726  -0.000000
     9  C   -0.041229   0.004759  -0.003601   0.386675   0.385066  -0.000000
    10  C    0.000000  -0.000000   0.000000   0.000000   0.000000   0.390140
    11  C   -0.000000  -0.000000  -0.000000  -0.000000  -0.000000  -0.030232
    12  C   -0.000000  -0.000000  -0.000000  -0.000000  -0.000000  -0.030234
    13  C   -0.004584  -0.029666  -0.038442  -0.000948   0.000210  -0.000000
    14  C   -0.005388   0.000200  -0.000937  -0.038672  -0.030058  -0.000000
    15  C    0.000000   0.000001  -0.000021   0.000001   0.000001   0.004581
    16  C    0.000000   0.000001   0.000001  -0.000024   0.000002   0.004576
    17  C   -0.001050   0.004340  -0.008976  -0.010219   0.004309   0.000008
    18  N   -0.000026  -0.000058   0.000045   0.000060  -0.000057   0.000119
    19  H    0.000000  -0.000000   0.000000   0.000000  -0.000000  -0.000000
    20  H   -0.000000  -0.000000  -0.000001  -0.000000   0.000000   0.000000
    21  H   -0.000000   0.000000  -0.000000   0.000000  -0.000000   0.000000
    22  H    0.000001   0.000023   0.000532   0.000012   0.000000   0.000000
    23  H    0.000001   0.000000   0.000010   0.000739   0.000062   0.000000
    24  H   -0.031677  -0.001948  -0.005344  -0.004977  -0.002189  -0.000000
    25  H    0.622432  -0.005532   0.005663   0.005629  -0.005225  -0.000000
    26  H   -0.005532   0.584393  -0.031878  -0.000058  -0.000165  -0.000000
    27  H    0.005663  -0.031878   0.597206   0.003922  -0.000057   0.000000
    28  H    0.005629  -0.000058   0.003922   0.595622  -0.031176   0.000000
    29  H   -0.005225  -0.000165  -0.000057  -0.031176   0.584026  -0.000000
    30  H   -0.000000  -0.000000   0.000000   0.000000  -0.000000   0.563248
    31  H   -0.000000   0.000000   0.000000   0.000000   0.000000  -0.029319
    32  H    0.000000   0.000000  -0.000000   0.000000   0.000000  -0.002566
    33  H   -0.000000   0.000000   0.000000  -0.000000   0.000000  -0.004823
    34  H   -0.000000   0.000000  -0.000000   0.000000   0.000000  -0.004825
    35  H    0.000000   0.000000   0.000000  -0.000000   0.000000  -0.002567
    36  H    0.004172  -0.005369   0.005763   0.000139  -0.000033  -0.000000
    37  H   -0.000068  -0.002947  -0.005916  -0.000036   0.000011   0.000000
    38  H   -0.000051   0.000011  -0.000028  -0.005446  -0.003508   0.000000
    39  H    0.004616  -0.000043   0.000137   0.005717  -0.004608  -0.000000
    40  H    0.000000  -0.000000   0.000001  -0.000000  -0.000000  -0.000044
    41  H   -0.000000   0.000002   0.000011  -0.000000   0.000000  -0.000138
    42  H   -0.000000   0.000000  -0.000000   0.000015   0.000001  -0.000138
    43  H    0.000000   0.000000  -0.000000   0.000002  -0.000001  -0.000045
    44  H    0.000015  -0.000007   0.000011   0.000011  -0.000005  -0.000060
              31         32         33         34         35         36
     1  C   -0.000000  -0.000000   0.000000   0.000000  -0.000000   0.000000
     2  C    0.000001  -0.000000   0.000000   0.000000  -0.000000  -0.000010
     3  C    0.000001  -0.000000   0.000000   0.000000  -0.000000   0.000001
     4  C   -0.000011   0.000012  -0.000006  -0.000000   0.000000  -0.000000
     5  C   -0.000008   0.000000  -0.000000  -0.000005   0.000009  -0.000074
     6  C   -0.000019   0.000005  -0.000009  -0.000009   0.000006   0.005981
     7  C    0.000000   0.000000   0.000000   0.000000   0.000000  -0.003309
     8  C   -0.000000  -0.000000  -0.000001  -0.000000  -0.000000  -0.032414
     9  C   -0.000000  -0.000000  -0.000000  -0.000001  -0.000000  -0.000363
    10  C    0.388508  -0.027554  -0.040380  -0.040397  -0.027550   0.000003
    11  C   -0.040342   0.388191   0.384548  -0.003736   0.004422  -0.000120
    12  C   -0.040381   0.004422  -0.003733   0.384652   0.388178  -0.000014
    13  C   -0.000000   0.000006  -0.000023  -0.000006   0.000002   0.371080
    14  C   -0.000000   0.000002  -0.000004  -0.000023   0.000007  -0.006280
    15  C   -0.004215  -0.029646  -0.039619  -0.000548   0.000133  -0.001276
    16  C   -0.004158   0.000132  -0.000540  -0.039682  -0.029645   0.000121
    17  C   -0.000027  -0.000066  -0.000080  -0.000077  -0.000067  -0.037073
    18  N   -0.000863   0.003484  -0.005406  -0.005408   0.003488  -0.004724
    19  H    0.000000   0.000000   0.000000   0.000000   0.000000  -0.000000
    20  H    0.000000  -0.000000  -0.000000   0.000000  -0.000000  -0.000000
    21  H    0.000000  -0.000000   0.000000  -0.000000  -0.000000  -0.000000
    22  H   -0.000001   0.000000  -0.000001  -0.000000  -0.000000   0.000024
    23  H   -0.000000  -0.000000  -0.000000  -0.000001   0.000000  -0.000001
    24  H   -0.000000  -0.000000  -0.000000  -0.000000  -0.000000  -0.000038
    25  H   -0.000000   0.000000  -0.000000  -0.000000   0.000000   0.004172
    26  H    0.000000   0.000000   0.000000   0.000000   0.000000  -0.005369
    27  H    0.000000  -0.000000   0.000000  -0.000000   0.000000   0.005763
    28  H    0.000000   0.000000  -0.000000   0.000000  -0.000000   0.000139
    29  H    0.000000   0.000000   0.000000   0.000000   0.000000  -0.000033
    30  H   -0.029319  -0.002566  -0.004823  -0.004825  -0.002567  -0.000000
    31  H    0.596830  -0.004529   0.005454   0.005456  -0.004528  -0.000000
    32  H   -0.004529   0.548909  -0.027745  -0.000060  -0.000139  -0.000000
    33  H    0.005454  -0.027745   0.599831   0.004234  -0.000060   0.000019
    34  H    0.005456  -0.000060   0.004234   0.599831  -0.027746  -0.000003
    35  H   -0.004528  -0.000139  -0.000060  -0.027746   0.548877   0.000000
    36  H   -0.000000  -0.000000   0.000019  -0.000003   0.000000   0.627641
    37  H    0.000000   0.000009   0.000010   0.000000   0.000000  -0.038615
    38  H    0.000000   0.000000   0.000000   0.000009   0.000010  -0.000105
    39  H   -0.000000   0.000000  -0.000002   0.000020  -0.000000   0.003417
    40  H    0.004076  -0.003146   0.004602   0.000140  -0.000021   0.000053
    41  H   -0.000018  -0.001473  -0.004293  -0.000014   0.000011   0.000911
    42  H   -0.000018   0.000011  -0.000014  -0.004301  -0.001472  -0.000007
    43  H    0.004035  -0.000021   0.000138   0.004605  -0.003139  -0.000007
    44  H    0.000252  -0.000124   0.005836   0.005826  -0.000123   0.006201
              37         38         39         40         41         42
     1  C   -0.000011  -0.000018   0.000001  -0.000036  -0.000001  -0.000001
     2  C    0.000235   0.000011   0.000001   0.000879   0.000010   0.000000
     3  C    0.000009   0.000424  -0.000015  -0.000104   0.000000   0.000002
     4  C    0.002945  -0.000288  -0.000079   0.007470   0.000009  -0.000025
     5  C   -0.000249   0.002220   0.000025  -0.000309  -0.000028   0.000079
     6  C   -0.013987  -0.015537   0.006325   0.006203  -0.000894  -0.000829
     7  C    0.004530   0.004656  -0.003948  -0.000000   0.000004   0.000003
     8  C   -0.028124   0.000215  -0.000416  -0.000019   0.000008  -0.000006
     9  C    0.000172  -0.029633  -0.032023  -0.000000  -0.000006   0.000029
    10  C   -0.000006  -0.000006   0.000002  -0.003861   0.003782   0.003779
    11  C    0.000019   0.000001  -0.000010  -0.029964  -0.031138   0.000091
    12  C    0.000002   0.000030  -0.000112  -0.000852   0.000087  -0.031147
    13  C    0.373629   0.005464  -0.005993  -0.000836   0.005451   0.000182
    14  C    0.005490   0.374138   0.371097   0.000059   0.000173   0.005361
    15  C   -0.002526  -0.000162   0.000087   0.384853   0.393787   0.003221
    16  C   -0.000163  -0.002261  -0.001416  -0.002722   0.003238   0.393904
    17  C   -0.030245  -0.028785  -0.037331  -0.003607  -0.005034  -0.005362
    18  N   -0.002884  -0.003223  -0.004050  -0.037371  -0.037012  -0.036778
    19  H   -0.000000  -0.000000  -0.000000   0.000000   0.000000   0.000000
    20  H    0.000011   0.000000  -0.000000   0.000002  -0.000000  -0.000000
    21  H    0.000000   0.000014  -0.000000  -0.000001  -0.000000  -0.000000
    22  H    0.001940  -0.000002  -0.000000  -0.000339  -0.000581  -0.000002
    23  H   -0.000001   0.000700   0.000117  -0.000000  -0.000001  -0.000658
    24  H   -0.000160  -0.000169  -0.000012  -0.000000  -0.000000  -0.000000
    25  H   -0.000068  -0.000051   0.004616   0.000000  -0.000000  -0.000000
    26  H   -0.002947   0.000011  -0.000043  -0.000000   0.000002   0.000000
    27  H   -0.005916  -0.000028   0.000137   0.000001   0.000011  -0.000000
    28  H   -0.000036  -0.005446   0.005717  -0.000000  -0.000000   0.000015
    29  H    0.000011  -0.003508  -0.004608  -0.000000   0.000000   0.000001
    30  H    0.000000   0.000000  -0.000000  -0.000044  -0.000138  -0.000138
    31  H    0.000000   0.000000  -0.000000   0.004076  -0.000018  -0.000018
    32  H    0.000009   0.000000   0.000000  -0.003146  -0.001473   0.000011
    33  H    0.000010   0.000000  -0.000002   0.004602  -0.004293  -0.000014
    34  H    0.000000   0.000009   0.000020   0.000140  -0.000014  -0.004301
    35  H    0.000000   0.000010  -0.000000  -0.000021   0.000011  -0.001472
    36  H   -0.038615  -0.000105   0.003417   0.000053   0.000911  -0.000007
    37  H    0.618535  -0.000186  -0.000109   0.000110   0.003371  -0.000001
    38  H   -0.000186   0.622250  -0.038197  -0.000003   0.000000   0.003181
    39  H   -0.000109  -0.038197   0.626814  -0.000005  -0.000009   0.001049
    40  H    0.000110  -0.000003  -0.000005   0.523207  -0.027573   0.000009
    41  H    0.003371   0.000000  -0.000009  -0.027573   0.544514  -0.000164
    42  H   -0.000001   0.003181   0.001049   0.000009  -0.000164   0.543107
    43  H   -0.000001   0.000136   0.000074   0.003955   0.000007  -0.027421
    44  H   -0.000384  -0.000326   0.005466   0.005038  -0.003101  -0.003052
              43         44
     1  C   -0.000038  -0.000000
     2  C   -0.000099   0.000003
     3  C    0.000738   0.000003
     4  C   -0.000300  -0.000124
     5  C    0.006705  -0.000119
     6  C    0.006658   0.004540
     7  C   -0.000000  -0.000004
     8  C   -0.000000  -0.000158
     9  C   -0.000018  -0.000140
    10  C   -0.003834  -0.001332
    11  C   -0.000820  -0.001315
    12  C   -0.030179  -0.001291
    13  C    0.000063  -0.003036
    14  C   -0.001027  -0.003109
    15  C   -0.002813  -0.029371
    16  C    0.385640  -0.029172
    17  C   -0.003496  -0.016893
    18  N   -0.037258   0.317527
    19  H    0.000000   0.000000
    20  H   -0.000001  -0.000000
    21  H    0.000001  -0.000000
    22  H   -0.000002  -0.000041
    23  H   -0.000173  -0.000029
    24  H   -0.000000  -0.000000
    25  H    0.000000   0.000015
    26  H    0.000000  -0.000007
    27  H   -0.000000   0.000011
    28  H    0.000002   0.000011
    29  H   -0.000001  -0.000005
    30  H   -0.000045  -0.000060
    31  H    0.004035   0.000252
    32  H   -0.000021  -0.000124
    33  H    0.000138   0.005836
    34  H    0.004605   0.005826
    35  H   -0.003139  -0.000123
    36  H   -0.000007   0.006201
    37  H   -0.000001  -0.000384
    38  H    0.000136  -0.000326
    39  H    0.000074   0.005466
    40  H    0.003955   0.005038
    41  H    0.000007  -0.003101
    42  H   -0.027421  -0.003052
    43  H    0.522844   0.005003
    44  H    0.005003   0.423153
 Mulliken charges:
               1
     1  C   -0.069487
     2  C   -0.093390
     3  C   -0.095640
     4  C   -0.121126
     5  C   -0.116863
     6  C    0.114782
     7  C   -0.184587
     8  C   -0.194052
     9  C   -0.193654
    10  C   -0.194558
    11  C   -0.219663
    12  C   -0.219791
    13  C   -0.204258
    14  C   -0.206767
    15  C   -0.075357
    16  C   -0.075190
    17  C    0.066627
    18  N   -0.461899
    19  H    0.128066
    20  H    0.125136
    21  H    0.124522
    22  H    0.103474
    23  H    0.106821
    24  H    0.126519
    25  H    0.106267
    26  H    0.129259
    27  H    0.123022
    28  H    0.122961
    29  H    0.128806
    30  H    0.142318
    31  H    0.123827
    32  H    0.151885
    33  H    0.122067
    34  H    0.122067
    35  H    0.151915
    36  H    0.104311
    37  H    0.115590
    38  H    0.114463
    39  H    0.103417
    40  H    0.170155
    41  H    0.156104
    42  H    0.157372
    43  H    0.170089
    44  H    0.314436
 Sum of Mulliken charges =   1.00000
 Mulliken charges with hydrogens summed into heavy atoms:
               1
     1  C    0.058579
     2  C    0.031746
     3  C    0.028882
     4  C   -0.017652
     5  C   -0.010042
     6  C    0.114782
     7  C    0.048199
     8  C    0.058230
     9  C    0.058113
    10  C    0.071588
    11  C    0.054289
    12  C    0.054191
    13  C    0.015643
    14  C    0.011114
    15  C    0.250902
    16  C    0.252271
    17  C    0.066627
    18  N   -0.147463
 Electronic spatial extent (au):  <R**2>=           4540.6910
 Charge=              1.0000 electrons
 Dipole moment (field-independent basis, Debye):
    X=             -3.5811    Y=             -1.1824    Z=             -0.0153  Tot=              3.7713
 Quadrupole moment (field-independent basis, Debye-Ang):
   XX=            -83.3019   YY=            -88.6073   ZZ=            -94.8155
   XY=              3.9448   XZ=             -0.2161   YZ=              0.0532
 Traceless Quadrupole moment (field-independent basis, Debye-Ang):
   XX=              5.6063   YY=              0.3009   ZZ=             -5.9073
   XY=              3.9448   XZ=             -0.2161   YZ=              0.0532
 Octapole moment (field-independent basis, Debye-Ang**2):
  XXX=            -64.9591  YYY=             26.3959  ZZZ=             -0.1458  XYY=             23.1433
  XXY=            -13.1051  XXZ=             -1.0653  XZZ=             -5.3828  YZZ=              5.4186
  YYZ=              1.0738  XYZ=             -0.6688
 Hexadecapole moment (field-independent basis, Debye-Ang**3):
 XXXX=          -2789.4539 YYYY=          -1812.8950 ZZZZ=           -893.5133 XXXY=            -33.3446
 XXXZ=             -0.4922 YYYX=             99.1449 YYYZ=              1.7892 ZZZX=             -1.2460
 ZZZY=              0.8155 XXYY=           -786.7787 XXZZ=           -620.8289 YYZZ=           -454.3358
 XXYZ=             -1.9429 YYXZ=             -0.1713 ZZXY=              6.6798
 N-N= 1.426409491405D+03 E-N=-4.494256535054D+03  KE= 7.109386495018D+02
 1\1\GINC-CPU196\FOpt\RB3LYP\6-31G(d,p)\C17H26N1(1+)\FEBRERMA\05-Feb-20
 24\0\\# B3LYP/6-31G** opt=Modredundant\\G6\\1,1\C,-4.2336182179,-6.577
 5697422,-2.9060778885\C,-4.2151239469,-5.4211695572,-3.6871541226\C,-3
 .1929281149,-6.8317864504,-2.0092996011\C,-3.1544682497,-4.51863981,-3
 .5705302331\C,-2.1289424243,-5.9367476861,-1.8853224193\C,-2.110385183
 2,-4.7733284425,-2.67110458\C,1.3176923299,-4.5561191721,-4.3858675096
 \C,0.0779377055,-3.8346470263,-4.9162863195\C,1.01770958,-5.3420958453
 ,-3.1095362665\C,-2.9608940667,-1.2823084587,0.5812566354\C,-2.7951302
 106,-0.7220295433,-0.840519327\C,-1.7644746677,-2.1630701117,0.9756189
 \C,-0.5928481003,-2.9769304829,-3.8287948556\C,0.3747969068,-4.4388977
 335,-2.0424350013\C,-2.5393284881,-1.8394427282,-1.8556120781\C,-1.518
 0748142,-3.2666579914,-0.0567365554\C,-0.9413016642,-3.776799754,-2.54
 41096265\N,-1.3362959942,-2.6523214287,-1.4279886144\H,-5.0571246905,-
 7.2787293755,-2.994555797\H,-5.0236410474,-5.2222848019,-4.3832250407\
 H,-3.2121512303,-7.7321073441,-1.4031034933\H,-3.1476677563,-3.6239529
 746,-4.1801953855\H,-1.3304070059,-6.1457371488,-1.1876705376\H,1.6959
 806433,-5.2400581626,-5.1526869594\H,2.115091896,-3.8261007815,-4.1916
 006355\H,0.3515568014,-3.208626479,-5.770895829\H,-0.6409055564,-4.572
 9710365,-5.290932857\H,0.3408755973,-6.171917094,-3.3419966474\H,1.940
 9525233,-5.7828887753,-2.7217231526\H,-3.0660576868,-0.4596773375,1.29
 39106157\H,-3.8835217924,-1.8739207921,0.6354510091\H,-3.6946696396,-0
 .1675607298,-1.1237498215\H,-1.9634035568,-0.0048336945,-0.8614820078\
 H,-0.8641908331,-1.5417314306,1.0756456762\H,-1.9463990067,-2.61196273
 4,1.9565482605\H,0.0572423283,-2.1264429209,-3.5825177246\H,-1.5094490
 328,-2.5565699637,-4.2467841397\H,0.1553802632,-5.0498150587,-1.167452
 2465\H,1.0936222784,-3.6715650804,-1.7251985414\H,-3.3870560251,-2.520
 1304618,-1.9291926802\H,-2.3169345487,-1.4214781924,-2.8347544204\H,-0
 .6067976688,-3.8116000627,0.1777911397\H,-2.357532685,-3.9596681078,-0
 .1154256479\H,-0.5450149479,-2.0052074947,-1.3637036731\\Version=ES64L
 -G16RevA.03\State=1-A\HF=-718.0532025\RMSD=2.529e-09\RMSF=4.113e-03\Di
 pole=0.0092133,1.1676935,0.9153597\Quadrupole=-1.5857922,2.534453,-0.9
 486609,1.5361566,-0.2505045,4.4321087\PG=C01 [X(C17H26N1)]\\@


 A MAN IS NEVER SO BRILLIANT AS WHEN HE TAKES THE WORDS RIGHT OUT
 OF YOUR MOUTH. -- ARNOT SHEPPARD, JR.
 Job cpu time:       0 days  1 hours  1 minutes 56.6 seconds.
 Elapsed time:       0 days  0 hours  7 minutes 48.3 seconds.
 File lengths (MBytes):  RWF=    105 Int=      0 D2E=      0 Chk=     14 Scr=      1
 Normal termination of Gaussian 16 at Mon Feb  5 15:30:10 2024.
