 Entering Gaussian System, Link 0=g16
 Initial command:
 /opt/ebsofts/Gaussian/g16/l1.exe "/scratch/Gau-1946546.inp" -scrdir="/scratch/"
 Entering Link 1 = /opt/ebsofts/Gaussian/g16/l1.exe PID=   1946552.
  
 Copyright (c) 1988,1990,1992,1993,1995,1998,2003,2009,2016,
            Gaussian, Inc.  All Rights Reserved.
  
 This is part of the Gaussian(R) 16 program.  It is based on
 the Gaussian(R) 09 system (copyright 2009, Gaussian, Inc.),
 the Gaussian(R) 03 system (copyright 2003, Gaussian, Inc.),
 the Gaussian(R) 98 system (copyright 1998, Gaussian, Inc.),
 the Gaussian(R) 94 system (copyright 1995, Gaussian, Inc.),
 the Gaussian 92(TM) system (copyright 1992, Gaussian, Inc.),
 the Gaussian 90(TM) system (copyright 1990, Gaussian, Inc.),
 the Gaussian 88(TM) system (copyright 1988, Gaussian, Inc.),
 the Gaussian 86(TM) system (copyright 1986, Carnegie Mellon
 University), and the Gaussian 82(TM) system (copyright 1983,
 Carnegie Mellon University). Gaussian is a federally registered
 trademark of Gaussian, Inc.
  
 This software contains proprietary and confidential information,
 including trade secrets, belonging to Gaussian, Inc.
  
 This software is provided under written license and may be
 used, copied, transmitted, or stored only in accord with that
 written license.
  
 The following legend is applicable only to US Government
 contracts under FAR:
  
                    RESTRICTED RIGHTS LEGEND
  
 Use, reproduction and disclosure by the US Government is
 subject to restrictions as set forth in subparagraphs (a)
 and (c) of the Commercial Computer Software - Restricted
 Rights clause in FAR 52.227-19.
  
 Gaussian, Inc.
 340 Quinnipiac St., Bldg. 40, Wallingford CT 06492
  
  
 ---------------------------------------------------------------
 Warning -- This program may not be used in any manner that
 competes with the business of Gaussian, Inc. or will provide
 assistance to any competitor of Gaussian, Inc.  The licensee
 of this program is prohibited from giving any competitor of
 Gaussian, Inc. access to this program.  By using this program,
 the user acknowledges that Gaussian, Inc. is engaged in the
 business of creating and licensing software in the field of
 computational chemistry and represents and warrants to the
 licensee that it is not a competitor of Gaussian, Inc. and that
 it will not use this program in any manner prohibited above.
 ---------------------------------------------------------------
  

 Cite this work as:
 Gaussian 16, Revision A.03,
 M. J. Frisch, G. W. Trucks, H. B. Schlegel, G. E. Scuseria, 
 M. A. Robb, J. R. Cheeseman, G. Scalmani, V. Barone, 
 G. A. Petersson, H. Nakatsuji, X. Li, M. Caricato, A. V. Marenich, 
 J. Bloino, B. G. Janesko, R. Gomperts, B. Mennucci, H. P. Hratchian, 
 J. V. Ortiz, A. F. Izmaylov, J. L. Sonnenberg, D. Williams-Young, 
 F. Ding, F. Lipparini, F. Egidi, J. Goings, B. Peng, A. Petrone, 
 T. Henderson, D. Ranasinghe, V. G. Zakrzewski, J. Gao, N. Rega, 
 G. Zheng, W. Liang, M. Hada, M. Ehara, K. Toyota, R. Fukuda, 
 J. Hasegawa, M. Ishida, T. Nakajima, Y. Honda, O. Kitao, H. Nakai, 
 T. Vreven, K. Throssell, J. A. Montgomery, Jr., J. E. Peralta, 
 F. Ogliaro, M. J. Bearpark, J. J. Heyd, E. N. Brothers, K. N. Kudin, 
 V. N. Staroverov, T. A. Keith, R. Kobayashi, J. Normand, 
 K. Raghavachari, A. P. Rendell, J. C. Burant, S. S. Iyengar, 
 J. Tomasi, M. Cossi, J. M. Millam, M. Klene, C. Adamo, R. Cammi, 
 J. W. Ochterski, R. L. Martin, K. Morokuma, O. Farkas, 
 J. B. Foresman, and D. J. Fox, Gaussian, Inc., Wallingford CT, 2016.
 
 ******************************************
 Gaussian 16:  ES64L-G16RevA.03 25-Dec-2016
                 5-Feb-2024 
 ******************************************
 %Chk=G6.chk
 %nprocshared=8
 Will use up to    8 processors via shared memory.
 %mem=1GB
 ----------------------------------------------------------------------
 # HF/6-31G** SCRF=(Solvent=Water) POP=MK iop(6/50=1) geom=allcheck gue
 ss=read
 ----------------------------------------------------------------------
 1/29=7,38=1,172=1/1;
 2/12=2,40=1/2;
 3/5=1,6=6,7=101,11=9,14=-4,25=1,30=1,70=2201,72=1,116=-2/1,2,3;
 4/5=1/1;
 5/5=2,38=6,53=1/2;
 6/7=2,8=2,9=2,10=2,15=8,20=1,28=1,50=1/1,2;
 99/5=1,9=1/99;
 Structure from the checkpoint file:  "G6.chk"
 --
 G6
 --
 Charge =  1 Multiplicity = 1
 Redundant internal coordinates found in file.  (old form).
 C,0,-4.2336182179,-6.5775697422,-2.9060778885
 C,0,-4.2151239469,-5.4211695572,-3.6871541226
 C,0,-3.1929281149,-6.8317864504,-2.0092996011
 C,0,-3.1544682497,-4.51863981,-3.5705302331
 C,0,-2.1289424243,-5.9367476861,-1.8853224193
 C,0,-2.1103851832,-4.7733284425,-2.67110458
 C,0,1.3176923299,-4.5561191721,-4.3858675096
 C,0,0.0779377055,-3.8346470263,-4.9162863195
 C,0,1.01770958,-5.3420958453,-3.1095362665
 C,0,-2.9608940667,-1.2823084587,0.5812566354
 C,0,-2.7951302106,-0.7220295433,-0.840519327
 C,0,-1.7644746677,-2.1630701117,0.9756189
 C,0,-0.5928481003,-2.9769304829,-3.8287948556
 C,0,0.3747969068,-4.4388977335,-2.0424350013
 C,0,-2.5393284881,-1.8394427282,-1.8556120781
 C,0,-1.5180748142,-3.2666579914,-0.0567365554
 C,0,-0.9413016642,-3.776799754,-2.5441096265
 N,0,-1.3362959942,-2.6523214287,-1.4279886144
 H,0,-5.0571246905,-7.2787293755,-2.994555797
 H,0,-5.0236410474,-5.2222848019,-4.3832250407
 H,0,-3.2121512303,-7.7321073441,-1.4031034933
 H,0,-3.1476677563,-3.6239529746,-4.1801953855
 H,0,-1.3304070059,-6.1457371488,-1.1876705376
 H,0,1.6959806433,-5.2400581626,-5.1526869594
 H,0,2.115091896,-3.8261007815,-4.1916006355
 H,0,0.3515568014,-3.208626479,-5.770895829
 H,0,-0.6409055564,-4.5729710365,-5.290932857
 H,0,0.3408755973,-6.171917094,-3.3419966474
 H,0,1.9409525233,-5.7828887753,-2.7217231526
 H,0,-3.0660576868,-0.4596773375,1.2939106157
 H,0,-3.8835217924,-1.8739207921,0.6354510091
 H,0,-3.6946696396,-0.1675607298,-1.1237498215
 H,0,-1.9634035568,-0.0048336945,-0.8614820078
 H,0,-0.8641908331,-1.5417314306,1.0756456762
 H,0,-1.9463990067,-2.611962734,1.9565482605
 H,0,0.0572423283,-2.1264429209,-3.5825177246
 H,0,-1.5094490328,-2.5565699637,-4.2467841397
 H,0,0.1553802632,-5.0498150587,-1.1674522465
 H,0,1.0936222784,-3.6715650804,-1.7251985414
 H,0,-3.3870560251,-2.5201304618,-1.9291926802
 H,0,-2.3169345487,-1.4214781924,-2.8347544204
 H,0,-0.6067976688,-3.8116000627,0.1777911397
 H,0,-2.357532685,-3.9596681078,-0.1154256479
 H,0,-0.5450149479,-2.0052074947,-1.3637036731
 Recover connectivity data from disk.
                           ----------------------------
                           !    Current Parameters    !
                           ! (Angstroms and Degrees)  !
 --------------------------                            --------------------------
 ! Name  Definition              Value                                          !
 --------------------------------------------------------------------------------
 ! R1    R(1,2)                  1.3956                                         !
 ! R2    R(1,3)                  1.3971                                         !
 ! R3    R(1,19)                 1.0852                                         !
 ! R4    R(2,4)                  1.3976                                         !
 ! R5    R(2,20)                 1.0853                                         !
 ! R6    R(3,5)                  1.3959                                         !
 ! R7    R(3,21)                 1.0856                                         !
 ! R8    R(4,6)                  1.4014                                         !
 ! R9    R(4,22)                 1.0827                                         !
 ! R10   R(5,6)                  1.404                                          !
 ! R11   R(5,23)                 1.0808                                         !
 ! R12   R(6,17)                 1.5414                                         !
 ! R13   R(7,8)                  1.5293                                         !
 ! R14   R(7,9)                  1.5286                                         !
 ! R15   R(7,24)                 1.0949                                         !
 ! R16   R(7,25)                 1.0984                                         !
 ! R17   R(8,13)                 1.5389                                         !
 ! R18   R(8,26)                 1.0941                                         !
 ! R19   R(8,27)                 1.0965                                         !
 ! R20   R(9,14)                 1.5388                                         !
 ! R21   R(9,28)                 1.0958                                         !
 ! R22   R(9,29)                 1.0941                                         !
 ! R23   R(10,11)                1.5372                                         !
 ! R24   R(10,12)                1.5371                                         !
 ! R25   R(10,30)                1.0935                                         !
 ! R26   R(10,31)                1.0974                                         !
 ! R27   R(11,15)                1.5312                                         !
 ! R28   R(11,32)                1.094                                          !
 ! R29   R(11,33)                1.0984                                         !
 ! R30   R(12,16)                1.5311                                         !
 ! R31   R(12,34)                1.0984                                         !
 ! R32   R(12,35)                1.094                                          !
 ! R33   R(13,17)                1.5529                                         !
 ! R34   R(13,36)                1.0985                                         !
 ! R35   R(13,37)                1.0916                                         !
 ! R36   R(14,17)                1.5563                                         !
 ! R37   R(14,38)                1.0895                                         !
 ! R38   R(14,39)                1.0982                                         !
 ! R39   R(15,18)                1.5136                                         !
 ! R40   R(15,40)                1.0897                                         !
 ! R41   R(15,41)                1.0876                                         !
 ! R42   R(16,18)                1.5135                                         !
 ! R43   R(16,42)                1.0874                                         !
 ! R44   R(16,43)                1.0901                                         !
 ! R45   R(17,18)                1.6328                                         !
 ! R46   R(18,44)                1.0242                                         !
 ! A1    A(2,1,3)              120.0099                                         !
 ! A2    A(2,1,19)             119.9872                                         !
 ! A3    A(3,1,19)             120.0028                                         !
 ! A4    A(1,2,4)              119.8983                                         !
 ! A5    A(1,2,20)             120.0628                                         !
 ! A6    A(4,2,20)             120.0388                                         !
 ! A7    A(1,3,5)              120.5383                                         !
 ! A8    A(1,3,21)             119.7467                                         !
 ! A9    A(5,3,21)             119.7149                                         !
 ! A10   A(2,4,6)              120.1073                                         !
 ! A11   A(2,4,22)             119.4349                                         !
 ! A12   A(6,4,22)             120.4578                                         !
 ! A13   A(3,5,6)              119.4506                                         !
 ! A14   A(3,5,23)             119.7701                                         !
 ! A15   A(6,5,23)             120.7794                                         !
 ! A16   A(4,6,5)              119.9955                                         !
 ! A17   A(4,6,17)             120.0296                                         !
 ! A18   A(5,6,17)             119.9749                                         !
 ! A19   A(8,7,9)              111.9045                                         !
 ! A20   A(8,7,24)             109.3812                                         !
 ! A21   A(8,7,25)             109.6518                                         !
 ! A22   A(9,7,24)             109.3518                                         !
 ! A23   A(9,7,25)             109.6645                                         !
 ! A24   A(24,7,25)            106.7498                                         !
 ! A25   A(7,8,13)             111.789                                          !
 ! A26   A(7,8,26)             109.761                                          !
 ! A27   A(7,8,27)             109.4089                                         !
 ! A28   A(13,8,26)            110.0031                                         !
 ! A29   A(13,8,27)            109.3292                                         !
 ! A30   A(26,8,27)            106.4001                                         !
 ! A31   A(7,9,14)             111.0516                                         !
 ! A32   A(7,9,28)             109.4787                                         !
 ! A33   A(7,9,29)             109.7247                                         !
 ! A34   A(14,9,28)            109.484                                          !
 ! A35   A(14,9,29)            110.0737                                         !
 ! A36   A(28,9,29)            106.9364                                         !
 ! A37   A(11,10,12)           111.2367                                         !
 ! A38   A(11,10,30)           109.8148                                         !
 ! A39   A(11,10,31)           109.4421                                         !
 ! A40   A(12,10,30)           109.7993                                         !
 ! A41   A(12,10,31)           109.441                                          !
 ! A42   A(30,10,31)           107.0105                                         !
 ! A43   A(10,11,15)           111.4206                                         !
 ! A44   A(10,11,32)           109.6046                                         !
 ! A45   A(10,11,33)           109.7118                                         !
 ! A46   A(15,11,32)           109.6094                                         !
 ! A47   A(15,11,33)           109.7148                                         !
 ! A48   A(32,11,33)           106.6628                                         !
 ! A49   A(10,12,16)           111.4244                                         !
 ! A50   A(10,12,34)           109.7056                                         !
 ! A51   A(10,12,35)           109.6167                                         !
 ! A52   A(16,12,34)           109.7067                                         !
 ! A53   A(16,12,35)           109.6073                                         !
 ! A54   A(34,12,35)           106.6632                                         !
 ! A55   A(8,13,17)            113.2861                                         !
 ! A56   A(8,13,36)            109.3905                                         !
 ! A57   A(8,13,37)            108.0618                                         !
 ! A58   A(17,13,36)           110.25                                           !
 ! A59   A(17,13,37)           109.069                                          !
 ! A60   A(36,13,37)           106.5374                                         !
 ! A61   A(9,14,17)            112.3018                                         !
 ! A62   A(9,14,38)            108.1772                                         !
 ! A63   A(9,14,39)            109.6914                                         !
 ! A64   A(17,14,38)           109.0944                                         !
 ! A65   A(17,14,39)           110.4484                                         !
 ! A66   A(38,14,39)           106.9547                                         !
 ! A67   A(11,15,18)           109.7197                                         !
 ! A68   A(11,15,40)           111.7569                                         !
 ! A69   A(11,15,41)           110.521                                          !
 ! A70   A(18,15,40)           107.5741                                         !
 ! A71   A(18,15,41)           107.3504                                         !
 ! A72   A(40,15,41)           109.7763                                         !
 ! A73   A(12,16,18)           109.7326                                         !
 ! A74   A(12,16,42)           110.5274                                         !
 ! A75   A(12,16,43)           111.7511                                         !
 ! A76   A(18,16,42)           107.3477                                         !
 ! A77   A(18,16,43)           107.5622                                         !
 ! A78   A(42,16,43)           109.7772                                         !
 ! A79   A(6,17,13)            115.7865                                         !
 ! A80   A(6,17,14)            113.1349                                         !
 ! A81   A(6,17,18)            108.5459                                         !
 ! A82   A(13,17,14)           107.2197                                         !
 ! A83   A(13,17,18)           105.3693                                         !
 ! A84   A(14,17,18)           106.0932                                         !
 ! A85   A(15,18,16)           112.2404                                         !
 ! A86   A(15,18,17)           111.6543                                         !
 ! A87   A(15,18,44)           107.0061                                         !
 ! A88   A(16,18,17)           111.6425                                         !
 ! A89   A(16,18,44)           107.0001                                         !
 ! A90   A(17,18,44)           106.925                                          !
 ! D1    D(3,1,2,4)             -0.0047         Frozen                          !
 ! D2    D(3,1,2,20)          -179.9306         Frozen                          !
 ! D3    D(19,1,2,4)           179.9224         Frozen                          !
 ! D4    D(19,1,2,20)           -0.0035         Frozen                          !
 ! D5    D(2,1,3,5)              0.0013         Frozen                          !
 ! D6    D(2,1,3,21)           179.9376         Frozen                          !
 ! D7    D(19,1,3,5)          -179.9258         Frozen                          !
 ! D8    D(19,1,3,21)            0.0106         Frozen                          !
 ! D9    D(1,2,4,6)              0.0058         Frozen                          !
 ! D10   D(1,2,4,22)           179.9936         Frozen                          !
 ! D11   D(20,2,4,6)           179.9317         Frozen                          !
 ! D12   D(20,2,4,22)           -0.0805         Frozen                          !
 ! D13   D(1,3,5,6)              0.001          Frozen                          !
 ! D14   D(1,3,5,23)          -179.9992         Frozen                          !
 ! D15   D(21,3,5,6)          -179.9353         Frozen                          !
 ! D16   D(21,3,5,23)            0.0644         Frozen                          !
 ! D17   D(2,4,6,5)             -0.0034         Frozen                          !
 ! D18   D(2,4,6,17)           179.989          Frozen                          !
 ! D19   D(22,4,6,5)          -179.9911         Frozen                          !
 ! D20   D(22,4,6,17)            0.0013         Frozen                          !
 ! D21   D(3,5,6,4)              0.0            Frozen                          !
 ! D22   D(3,5,6,17)          -179.9924         Frozen                          !
 ! D23   D(23,5,6,4)          -179.9997         Frozen                          !
 ! D24   D(23,5,6,17)            0.0079         Frozen                          !
 ! D25   D(4,6,17,13)          -30.0056         Frozen                          !
 ! D26   D(4,6,17,14)         -154.3347         Frozen                          !
 ! D27   D(4,6,17,18)           88.1948         Frozen                          !
 ! D28   D(5,6,17,13)          149.9868         Frozen                          !
 ! D29   D(5,6,17,14)           25.6577         Frozen                          !
 ! D30   D(5,6,17,18)          -91.8128         Frozen                          !
 ! D31   D(9,7,8,13)            52.2479         Frozen                          !
 ! D32   D(9,7,8,26)           174.5954         Frozen                          !
 ! D33   D(9,7,8,27)           -69.0028         Frozen                          !
 ! D34   D(24,7,8,13)          173.5839         Frozen                          !
 ! D35   D(24,7,8,26)          -64.0686         Frozen                          !
 ! D36   D(24,7,8,27)           52.3332         Frozen                          !
 ! D37   D(25,7,8,13)          -69.6708         Frozen                          !
 ! D38   D(25,7,8,26)           52.6767         Frozen                          !
 ! D39   D(25,7,8,27)          169.0785         Frozen                          !
 ! D40   D(8,7,9,14)           -53.9889         Frozen                          !
 ! D41   D(8,7,9,28)            67.024          Frozen                          !
 ! D42   D(8,7,9,29)          -175.9065         Frozen                          !
 ! D43   D(24,7,9,14)         -175.3419         Frozen                          !
 ! D44   D(24,7,9,28)          -54.3289         Frozen                          !
 ! D45   D(24,7,9,29)           62.7405         Frozen                          !
 ! D46   D(25,7,9,14)           67.9224         Frozen                          !
 ! D47   D(25,7,9,28)         -171.0646         Frozen                          !
 ! D48   D(25,7,9,29)          -53.9952         Frozen                          !
 ! D49   D(7,8,13,17)          -54.5449         Frozen                          !
 ! D50   D(7,8,13,36)           68.8873         Frozen                          !
 ! D51   D(7,8,13,37)         -175.5067         Frozen                          !
 ! D52   D(26,8,13,17)        -176.7538         Frozen                          !
 ! D53   D(26,8,13,36)         -53.3216         Frozen                          !
 ! D54   D(26,8,13,37)          62.2844         Frozen                          !
 ! D55   D(27,8,13,17)          66.7519         Frozen                          !
 ! D56   D(27,8,13,36)        -169.8159         Frozen                          !
 ! D57   D(27,8,13,37)         -54.2099         Frozen                          !
 ! D58   D(7,9,14,17)           57.9465         Frozen                          !
 ! D59   D(7,9,14,38)          178.3988         Frozen                          !
 ! D60   D(7,9,14,39)          -65.2734         Frozen                          !
 ! D61   D(28,9,14,17)         -63.0633         Frozen                          !
 ! D62   D(28,9,14,38)          57.389          Frozen                          !
 ! D63   D(28,9,14,39)         173.7167         Frozen                          !
 ! D64   D(29,9,14,17)         179.6605         Frozen                          !
 ! D65   D(29,9,14,38)         -59.8872         Frozen                          !
 ! D66   D(29,9,14,39)          56.4406         Frozen                          !
 ! D67   D(12,10,11,15)         53.9694         Frozen                          !
 ! D68   D(12,10,11,32)        175.4645         Frozen                          !
 ! D69   D(12,10,11,33)        -67.7314         Frozen                          !
 ! D70   D(30,10,11,15)        175.725          Frozen                          !
 ! D71   D(30,10,11,32)        -62.78           Frozen                          !
 ! D72   D(30,10,11,33)         54.0242         Frozen                          !
 ! D73   D(31,10,11,15)        -67.0849         Frozen                          !
 ! D74   D(31,10,11,32)         54.4102         Frozen                          !
 ! D75   D(31,10,11,33)        171.2143         Frozen                          !
 ! D76   D(11,10,12,16)        -53.9532         Frozen                          !
 ! D77   D(11,10,12,34)         67.7357         Frozen                          !
 ! D78   D(11,10,12,35)       -175.4563         Frozen                          !
 ! D79   D(30,10,12,16)       -175.7178         Frozen                          !
 ! D80   D(30,10,12,34)        -54.0289         Frozen                          !
 ! D81   D(30,10,12,35)         62.7791         Frozen                          !
 ! D82   D(31,10,12,16)         67.1018         Frozen                          !
 ! D83   D(31,10,12,34)       -171.2093         Frozen                          !
 ! D84   D(31,10,12,35)        -54.4013         Frozen                          !
 ! D85   D(10,11,15,18)        -55.6403         Frozen                          !
 ! D86   D(10,11,15,40)         63.5955         Frozen                          !
 ! D87   D(10,11,15,41)       -173.832          Frozen                          !
 ! D88   D(32,11,15,18)       -177.1326         Frozen                          !
 ! D89   D(32,11,15,40)        -57.8968         Frozen                          !
 ! D90   D(32,11,15,41)         64.6757         Frozen                          !
 ! D91   D(33,11,15,18)         66.0588         Frozen                          !
 ! D92   D(33,11,15,40)       -174.7054         Frozen                          !
 ! D93   D(33,11,15,41)        -52.1329         Frozen                          !
 ! D94   D(10,12,16,18)         55.6141         Frozen                          !
 ! D95   D(10,12,16,42)        173.8143         Frozen                          !
 ! D96   D(10,12,16,43)        -63.6115         Frozen                          !
 ! D97   D(34,12,16,18)        -66.0741         Frozen                          !
 ! D98   D(34,12,16,42)         52.1261         Frozen                          !
 ! D99   D(34,12,16,43)        174.7003         Frozen                          !
 ! D100  D(35,12,16,18)        177.1226         Frozen                          !
 ! D101  D(35,12,16,42)        -64.6771         Frozen                          !
 ! D102  D(35,12,16,43)         57.897          Frozen                          !
 ! D103  D(8,13,17,6)          -71.683          Frozen                          !
 ! D104  D(8,13,17,14)          55.6581         Frozen                          !
 ! D105  D(8,13,17,18)         168.374          Frozen                          !
 ! D106  D(36,13,17,6)         165.3583         Frozen                          !
 ! D107  D(36,13,17,14)        -67.3006         Frozen                          !
 ! D108  D(36,13,17,18)         45.4153         Frozen                          !
 ! D109  D(37,13,17,6)          48.7086         Frozen                          !
 ! D110  D(37,13,17,14)        176.0497         Frozen                          !
 ! D111  D(37,13,17,18)        -71.2344         Frozen                          !
 ! D112  D(9,14,17,6)           71.5811         Frozen                          !
 ! D113  D(9,14,17,13)         -57.298          Frozen                          !
 ! D114  D(9,14,17,18)        -169.5208         Frozen                          !
 ! D115  D(38,14,17,6)         -48.3394         Frozen                          !
 ! D116  D(38,14,17,13)       -177.2185         Frozen                          !
 ! D117  D(38,14,17,18)         70.5586         Frozen                          !
 ! D118  D(39,14,17,6)        -165.6247         Frozen                          !
 ! D119  D(39,14,17,13)         65.4962         Frozen                          !
 ! D120  D(39,14,17,18)        -46.7266         Frozen                          !
 ! D121  D(11,15,18,16)         58.7364         Frozen                          !
 ! D122  D(11,15,18,17)       -175.0311         Frozen                          !
 ! D123  D(11,15,18,44)        -58.3532         Frozen                          !
 ! D124  D(40,15,18,16)        -63.0373         Frozen                          !
 ! D125  D(40,15,18,17)         63.1952         Frozen                          !
 ! D126  D(40,15,18,44)        179.8731         Frozen                          !
 ! D127  D(41,15,18,16)        178.8774         Frozen                          !
 ! D128  D(41,15,18,17)        -54.8901         Frozen                          !
 ! D129  D(41,15,18,44)         61.7878         Frozen                          !
 ! D130  D(12,16,18,15)        -58.7254         Frozen                          !
 ! D131  D(12,16,18,17)        175.0358         Frozen                          !
 ! D132  D(12,16,18,44)         58.3678         Frozen                          !
 ! D133  D(42,16,18,15)       -178.8798         Frozen                          !
 ! D134  D(42,16,18,17)         54.8814         Frozen                          !
 ! D135  D(42,16,18,44)        -61.7866         Frozen                          !
 ! D136  D(43,16,18,15)         63.0415         Frozen                          !
 ! D137  D(43,16,18,17)        -63.1973         Frozen                          !
 ! D138  D(43,16,18,44)       -179.8653         Frozen                          !
 ! D139  D(6,17,18,15)         -63.2747         Frozen                          !
 ! D140  D(6,17,18,16)          63.2845         Frozen                          !
 ! D141  D(6,17,18,44)         179.9981         Frozen                          !
 ! D142  D(13,17,18,15)         61.3418         Frozen                          !
 ! D143  D(13,17,18,16)       -172.099          Frozen                          !
 ! D144  D(13,17,18,44)        -55.3854         Frozen                          !
 ! D145  D(14,17,18,15)        174.8474         Frozen                          !
 ! D146  D(14,17,18,16)        -58.5933         Frozen                          !
 ! D147  D(14,17,18,44)         58.1203         Frozen                          !
 --------------------------------------------------------------------------------
                          Input orientation:                          
 ---------------------------------------------------------------------
 Center     Atomic      Atomic             Coordinates (Angstroms)
 Number     Number       Type             X           Y           Z
 ---------------------------------------------------------------------
      1          6           0       -4.233618   -6.577570   -2.906078
      2          6           0       -4.215124   -5.421170   -3.687154
      3          6           0       -3.192928   -6.831786   -2.009300
      4          6           0       -3.154468   -4.518640   -3.570530
      5          6           0       -2.128942   -5.936748   -1.885322
      6          6           0       -2.110385   -4.773328   -2.671105
      7          6           0        1.317692   -4.556119   -4.385868
      8          6           0        0.077938   -3.834647   -4.916286
      9          6           0        1.017710   -5.342096   -3.109536
     10          6           0       -2.960894   -1.282308    0.581257
     11          6           0       -2.795130   -0.722030   -0.840519
     12          6           0       -1.764475   -2.163070    0.975619
     13          6           0       -0.592848   -2.976930   -3.828795
     14          6           0        0.374797   -4.438898   -2.042435
     15          6           0       -2.539328   -1.839443   -1.855612
     16          6           0       -1.518075   -3.266658   -0.056737
     17          6           0       -0.941302   -3.776800   -2.544110
     18          7           0       -1.336296   -2.652321   -1.427989
     19          1           0       -5.057125   -7.278729   -2.994556
     20          1           0       -5.023641   -5.222285   -4.383225
     21          1           0       -3.212151   -7.732107   -1.403103
     22          1           0       -3.147668   -3.623953   -4.180195
     23          1           0       -1.330407   -6.145737   -1.187671
     24          1           0        1.695981   -5.240058   -5.152687
     25          1           0        2.115092   -3.826101   -4.191601
     26          1           0        0.351557   -3.208626   -5.770896
     27          1           0       -0.640906   -4.572971   -5.290933
     28          1           0        0.340876   -6.171917   -3.341997
     29          1           0        1.940953   -5.782889   -2.721723
     30          1           0       -3.066058   -0.459677    1.293911
     31          1           0       -3.883522   -1.873921    0.635451
     32          1           0       -3.694670   -0.167561   -1.123750
     33          1           0       -1.963404   -0.004834   -0.861482
     34          1           0       -0.864191   -1.541731    1.075646
     35          1           0       -1.946399   -2.611963    1.956548
     36          1           0        0.057242   -2.126443   -3.582518
     37          1           0       -1.509449   -2.556570   -4.246784
     38          1           0        0.155380   -5.049815   -1.167452
     39          1           0        1.093622   -3.671565   -1.725199
     40          1           0       -3.387056   -2.520130   -1.929193
     41          1           0       -2.316935   -1.421478   -2.834754
     42          1           0       -0.606798   -3.811600    0.177791
     43          1           0       -2.357533   -3.959668   -0.115426
     44          1           0       -0.545015   -2.005207   -1.363704
 ---------------------------------------------------------------------
                    Distance matrix (angstroms):
                    1          2          3          4          5
     1  C    0.000000
     2  C    1.395594   0.000000
     3  C    1.397095   2.418661   0.000000
     4  C    2.417696   1.397552   2.790980   0.000000
     5  C    2.425336   2.804384   1.395898   2.429539   0.000000
     6  C    2.796179   2.425279   2.418085   1.401407   1.404045
     7  C    6.090410   5.643454   5.583228   4.546031   4.476399
     8  C    5.491273   4.739008   5.303959   3.567542   4.298359
     9  C    5.398540   5.265211   4.599910   4.277577   3.428371
    10  C    6.466925   6.076396   6.128746   5.267698   5.332913
    11  C    6.373628   5.674648   6.233251   4.690025   5.359917
    12  C    6.375896   6.193734   5.722511   5.305494   4.749575
    13  C    5.203001   4.372099   4.993085   3.000911   3.859688
    14  C    5.153376   4.973664   4.296007   3.846706   2.921806
    15  C    5.140423   4.357936   5.037292   3.239975   4.117913
    16  C    5.143448   5.009583   4.396337   4.073326   3.293367
    17  C    4.337589   3.837762   3.832595   2.549897   2.551444
    18  N    5.097725   4.588900   4.610090   3.373334   3.409531
    19  H    1.085180   2.153877   2.155392   3.401462   3.406694
    20  H    2.154738   1.085251   3.402577   2.156246   3.889634
    21  H    2.152971   3.400482   1.085551   3.876524   2.151556
    22  H    3.395072   2.147682   3.873633   1.082683   3.413688
    23  H    3.401182   3.885101   2.148191   3.413600   1.080765
    24  H    6.480458   6.092762   6.026268   5.152720   5.078492
    25  H    7.037703   6.547545   6.478554   5.351038   5.271203
    26  H    6.370305   5.485608   6.311915   4.341654   5.356604
    27  H    4.755369   4.008314   4.731193   3.046430   3.958828
    28  H    4.613087   4.630323   3.833964   3.873368   2.877013
    29  H    6.228228   6.241809   5.288144   5.318093   4.157798
    30  H    7.512104   7.123747   7.178514   6.336070   6.401875
    31  H    5.898246   5.601593   5.661454   5.021587   5.093075
    32  H    6.674981   5.868758   6.741502   5.021000   6.026194
    33  H    7.248111   6.510865   7.031109   5.397409   6.021898
    34  H    7.250299   6.997361   6.551686   5.974471   5.448220
    35  H    6.678514   6.700010   5.923571   5.970213   5.084042
    36  H    6.219452   5.396229   5.931179   4.004727   4.709384
    37  H    5.038554   3.979924   5.110569   2.648231   4.169637
    38  H    4.961871   5.058469   3.885267   4.124564   2.553452
    39  H    6.182138   5.923949   5.333125   4.708403   3.942286
    40  H    4.258378   3.491726   4.316767   2.596560   3.641160
    41  H    5.501277   4.508574   5.542578   3.291692   4.617837
    42  H    5.505875   5.527073   4.537947   4.586986   3.330107
    43  H    4.261554   4.282975   3.540298   3.589610   2.663387
    44  H    6.073813   5.526022   5.542933   4.242248   4.270588
                    6          7          8          9         10
     6  C    0.000000
     7  C    3.839181   0.000000
     8  C    3.272724   1.529332   0.000000
     9  C    3.209470   1.528650   2.533756   0.000000
    10  C    4.846487   7.327787   6.780259   6.777397   0.000000
    11  C    4.498104   6.647183   5.878332   6.405560   1.537152
    12  C    4.497966   6.631137   6.395561   5.876670   1.537102
    13  C    2.621109   2.540538   1.538918   2.950464   5.284689
    14  C    2.585188   2.528729   2.951655   1.538769   5.289107
    15  C    3.075176   5.353423   4.494291   5.147176   2.535043
    16  C    3.075030   5.333447   5.146367   4.478530   2.535036
    17  C    1.541413   3.017029   2.582522   2.570522   4.479861
    18  N    2.577445   4.406489   3.945399   3.950168   2.924606
    19  H    3.881356   7.070124   6.474845   6.377098   7.289560
    20  H    3.408809   6.376229   5.313737   6.175318   6.665164
    21  H    3.402365   6.285162   6.193330   5.149349   6.752831
    22  H    2.162030   4.566254   3.315230   4.631273   5.309389
    23  H    2.166206   4.446097   4.607293   3.138958   5.425913
    24  H    4.567768   1.094937   2.156184   2.155210   8.380237
    25  H    4.589532   1.098414   2.162230   2.161794   7.417323
    26  H    4.256543   2.160430   1.094133   3.475383   7.418414
    27  H    3.010484   2.157668   1.096457   2.846234   7.119931
    28  H    2.900832   2.157462   2.830257   1.095785   7.085328
    29  H    4.175537   2.159350   3.476000   1.094109   7.429199
    30  H    5.936518   8.261839   7.735740   7.739865   1.093461
    31  H    4.741718   7.711061   7.096435   7.076386   1.097353
    32  H    5.110515   7.417859   6.485632   7.275004   2.165210
    33  H    5.102439   6.625789   5.939359   6.513613   2.169890
    34  H    5.102387   6.608727   6.484467   5.958193   2.169766
    35  H    5.110143   7.393259   7.268339   6.473390   2.165319
    36  H    3.540521   2.852618   2.167332   3.389193   5.211404
    37  H    2.785302   3.465584   2.145113   3.929252   5.200040
    38  H    2.733333   3.457297   3.941622   2.144931   5.192615
    39  H    3.517710   2.812793   3.352798   2.170905   5.240934
    40  H    2.693923   5.684642   4.759923   5.362710   2.831285
    41  H    3.362193   5.044050   3.986423   5.154280   3.478963
    42  H    3.361830   5.008488   5.139943   3.973407   3.478774
    43  H    2.693440   5.665660   5.384739   4.718905   2.831548
    44  H    3.438339   4.371533   4.044226   4.077360   3.184639
                   11         12         13         14         15
    11  C    0.000000
    12  C    2.537165   0.000000
    13  C    4.343318   5.011733   0.000000
    14  C    5.030720   4.343331   2.502952   0.000000
    15  C    1.531163   2.953134   2.996016   3.909501   0.000000
    16  C    2.953019   1.531136   3.894664   2.983305   2.513137
    17  C    3.958601   3.958564   1.552941   1.556331   2.604049
    18  N    2.489848   2.489987   2.534158   2.548968   1.513579
    19  H    7.262700   7.264558   6.255493   6.202979   6.101011
    20  H    6.145675   6.978407   4.998093   5.936002   4.899414
    21  H    7.044970   6.226417   5.946128   4.911229   5.948189
    22  H    4.438342   5.534422   2.658801   4.200228   2.993032
    23  H    5.628724   4.553007   4.190569   2.559618   4.522368
    24  H    7.692688   7.681064   3.480399   3.472902   6.353954
    25  H    6.706362   6.672096   2.861059   2.832501   5.573803
    26  H    6.355581   7.147464   2.171944   3.926261   5.055821
    27  H    6.267106   6.807327   2.165064   3.406225   4.783055
    28  H    6.767067   6.256609   3.364038   2.166418   5.410661
    29  H    7.182040   6.364245   3.939436   2.172691   6.031072
    30  H    2.167492   2.167251   6.220566   6.229356   3.478605
    31  H    2.165626   2.165567   5.654614   5.646544   2.830802
    32  H    1.093996   3.480669   4.983084   5.970667   2.160006
    33  H    1.098444   2.841214   4.417774   5.150025   2.164665
    34  H    2.841149   1.098443   5.117320   4.432955   3.389246
    35  H    3.480773   1.093994   5.952772   4.971671   3.934580
    36  H    4.198447   4.908829   1.098453   2.796452   3.131573
    37  H    4.076905   5.243412   1.091593   3.457267   2.700486
    38  H    5.248059   4.075769   3.455350   1.089476   4.247530
    39  H    4.960324   4.211732   2.784209   1.098248   4.070874
    40  H    2.183747   3.346370   3.409509   4.224456   1.089675
    41  H    2.166766   3.920984   2.525871   4.120438   1.087600
    42  H    3.920612   2.166656   4.092627   2.507276   3.429112
    43  H    3.346574   2.184001   4.227173   3.377669   2.748937
    44  H    2.642591   2.642808   2.650134   2.688788   2.060762
                   16         17         18         19         20
    16  C    0.000000
    17  C    2.603831   0.000000
    18  N    1.513534   1.632850   0.000000
    19  H    6.103472   5.422768   6.140224   0.000000
    20  H    5.901862   4.705026   5.379094   2.481630   0.000000
    21  H    4.962140   4.701395   5.415134   2.478346   4.296723
    22  H    4.448162   2.751034   3.435080   4.290589   2.472885
    23  H    3.098924   2.757389   3.501677   4.293825   4.970343
    24  H    6.339808   3.987613   5.455682   7.376865   6.763557
    25  H    5.532628   3.472492   4.574646   8.049488   7.276507
    26  H    6.012529   3.522280   4.692458   7.316258   5.905354
    27  H    5.465592   2.875615   4.369760   5.665463   4.522600
    28  H    4.763314   2.831464   4.343257   5.521246   5.546530
    29  H    5.039687   3.516153   4.713232   7.161359   7.181952
    30  H    3.478454   5.499844   3.899808   8.297877   7.664492
    31  H    2.830933   4.731513   3.369280   6.615606   6.139912
    32  H    3.934525   4.756581   3.439262   7.478296   6.159592
    33  H    3.389016   4.254839   2.779098   8.187226   6.999252
    34  H    2.164538   4.254892   2.779295   8.189040   7.787604
    35  H    2.159954   4.756363   3.439323   7.481227   7.515047
    36  H    4.026518   2.190676   2.619254   7.283440   6.003394
    37  H    4.249800   2.170450   2.825732   6.037621   4.412958
    38  H    2.685850   2.172203   2.835657   5.956221   6.098623
    39  H    3.125488   2.196043   2.651734   7.242554   6.847682
    40  H    2.748906   2.817633   2.115253   5.154454   4.000290
    41  H    3.429322   2.743060   2.110833   6.468506   4.916315
    42  H    1.087378   2.742599   2.110598   6.472262   6.503953
    43  H    1.090136   2.817385   2.115396   5.156875   5.188106
    44  H    2.060647   2.165396   1.024214   7.129435   6.286906
                   21         22         23         24         25
    21  H    0.000000
    22  H    4.959166   0.000000
    23  H    2.470616   4.314746   0.000000
    24  H    6.660289   5.197929   5.069579   0.000000
    25  H    7.170225   5.266653   5.125990   1.760289   0.000000
    26  H    7.227690   3.866186   5.697506   2.513239   2.446529
    27  H    5.630867   2.901419   4.448120   2.434164   3.059717
    28  H    4.337914   4.400526   2.726718   2.446072   3.061458
    29  H    5.665041   5.716835   3.631359   2.502851   2.453545
    30  H    7.757800   6.323380   6.442205   9.332077   8.262442
    31  H    6.238974   5.176345   5.300055   8.715748   7.943224
    32  H    7.585066   4.646258   6.429029   8.427436   7.519970
    33  H    7.846240   5.051175   6.182053   7.695005   6.505836
    34  H    7.069503   6.097030   5.151391   7.682723   6.468257
    35  H    6.253421   6.334571   4.770023   8.409224   7.467903
    36  H    6.845601   3.587646   4.880122   3.852985   2.737620
    37  H    6.145885   1.956400   4.719359   4.277446   3.840840
    38  H    4.311669   4.692529   1.846353   4.276884   3.805709
    39  H    5.927178   4.900798   3.505194   3.817156   2.674027
    40  H    5.241380   2.518481   4.233755   6.605012   6.090786
    41  H    6.532616   2.711314   5.099485   6.004819   5.221695
    42  H    4.965629   5.048097   2.799338   5.979739   5.147861
    43  H    4.076737   4.154440   2.642649   6.591234   6.052885
    44  H    6.317638   4.162543   4.218034   5.462849   4.288219
                   26         27         28         29         30
    26  H    0.000000
    27  H    1.754076   0.000000
    28  H    3.831548   2.705342   0.000000
    29  H    4.295400   3.838063   1.759639   0.000000
    30  H    8.315546   8.133923   8.107312   8.338588   0.000000
    31  H    7.794781   7.274714   7.220692   7.776577   1.761221
    32  H    6.871390   6.789590   7.566937   8.114534   2.515068
    33  H    6.302831   6.498993   7.035309   7.217369   2.463422
    34  H    7.150644   7.054898   6.512017   6.346358   2.463067
    35  H    8.083935   7.620751   6.780817   6.859482   2.514967
    36  H    2.459012   3.064571   4.062531   4.202253   6.025999
    37  H    2.492275   2.431149   4.160899   4.963891   6.125299
    38  H    4.961870   4.226647   2.454010   2.478190   6.124160
    39  H    4.139159   4.066397   3.071225   2.483690   6.060873
    40  H    5.404622   4.801749   5.406388   6.297727   3.838867
    41  H    4.351514   4.332874   5.466984   6.096251   4.304895
    42  H    6.055485   5.521575   4.342590   4.334074   4.304540
    43  H    6.315661   5.487151   4.752495   5.347326   3.839033
    44  H    4.655685   4.693158   4.696798   4.721772   3.975831
                   31         32         33         34         35
    31  H    0.000000
    32  H    2.458072   0.000000
    33  H    3.069389   1.758564   0.000000
    34  H    3.069280   3.838919   2.706065   0.000000
    35  H    2.458139   4.303462   3.839102   1.758567   0.000000
    36  H    5.777945   4.894855   3.998534   4.784288   5.910293
    37  H    5.471604   4.498433   4.263532   5.456603   6.218949
    38  H    5.445135   6.217813   5.480392   4.286918   4.485530
    39  H    5.794493   5.963852   4.851426   4.026655   4.890782
    40  H    2.690997   2.505584   3.081154   4.043658   4.145227
    41  H    3.834218   2.529427   2.454724   4.173267   4.950872
    42  H    3.834185   4.950554   4.172761   2.454526   2.529355
    43  H    2.691245   4.145447   4.043841   3.081418   2.505677
    44  H    3.893518   3.654429   2.503108   2.503419   3.654600
                   36         37         38         39         40
    36  H    0.000000
    37  H    1.755215   0.000000
    38  H    3.793188   4.297699   0.000000
    39  H    2.628901   3.791779   1.758110   0.000000
    40  H    3.840790   2.982946   4.419096   4.630755   0.000000
    41  H    2.587053   1.983506   4.696495   4.233899   1.781078
    42  H    4.173802   4.686870   1.980851   2.555857   3.719827
    43  H    4.605712   4.444778   2.934265   3.819011   2.534154
    44  H    2.302292   3.089707   3.130288   2.364859   2.943148
                   41         42         43         44
    41  H    0.000000
    42  H    4.208644   0.000000
    43  H    3.720054   1.781284   0.000000
    44  H    2.375801   2.375516   2.943354   0.000000
 Stoichiometry    C17H26N(1+)
 Framework group  C1[X(C17H26N)]
 Deg. of freedom   126
 Full point group                 C1      NOp   1
 Largest Abelian subgroup         C1      NOp   1
 Largest concise Abelian subgroup C1      NOp   1
                         Standard orientation:                         
 ---------------------------------------------------------------------
 Center     Atomic      Atomic             Coordinates (Angstroms)
 Number     Number       Type             X           Y           Z
 ---------------------------------------------------------------------
      1          6           0        1.582681    3.476647    0.014862
      2          6           0        1.343026    2.820655    1.223134
      3          6           0        1.435443    2.791182   -1.193580
      4          6           0        0.955685    1.477853    1.221904
      5          6           0        1.049064    1.449878   -1.205678
      6          6           0        0.807916    0.789951    0.009923
      7          6           0        2.802689   -2.490280   -0.006468
      8          6           0        2.328758   -1.814342    1.280914
      9          6           0        2.374994   -1.711395   -1.250327
     10          6           0       -4.004938    0.221218   -0.027790
     11          6           0       -3.363882   -0.348895    1.247692
     12          6           0       -3.343067   -0.355848   -1.289378
     13          6           0        0.818627   -1.519805    1.248924
     14          6           0        0.856057   -1.465159   -1.253151
     15          6           0       -1.845736   -0.149666    1.247646
     16          6           0       -1.825093   -0.156957   -1.265395
     17          6           0        0.380870   -0.691124    0.010666
     18          7           0       -1.250420   -0.761282   -0.002332
     19          1           0        1.882288    4.519648    0.014083
     20          1           0        1.456047    3.352605    2.162296
     21          1           0        1.621972    3.305897   -2.130968
     22          1           0        0.771806    0.976269    2.163608
     23          1           0        0.938943    0.931632   -2.147670
     24          1           0        3.894021   -2.577609    0.009497
     25          1           0        2.403994   -3.512616   -0.055290
     26          1           0        2.568560   -2.446968    2.140801
     27          1           0        2.878498   -0.876463    1.423700
     28          1           0        2.901070   -0.750567   -1.278617
     29          1           0        2.667883   -2.261725   -2.149453
     30          1           0       -5.075396   -0.001732   -0.036137
     31          1           0       -3.904589    1.313971   -0.029981
     32          1           0       -3.798051    0.137996    2.125907
     33          1           0       -3.597189   -1.418865    1.333200
     34          1           0       -3.575113   -1.426258   -1.372765
     35          1           0       -3.762489    0.126167   -2.177393
     36          1           0        0.261635   -2.465692    1.289631
     37          1           0        0.561989   -0.968831    2.155643
     38          1           0        0.607496   -0.884715   -2.140991
     39          1           0        0.326005   -2.423267   -1.338140
     40          1           0       -1.576939    0.906291    1.257383
     41          1           0       -1.395267   -0.651937    2.100685
     42          1           0       -1.360744   -0.664032   -2.107800
     43          1           0       -1.555836    0.899343   -1.276674
     44          1           0       -1.506226   -1.753037   -0.001623
 ---------------------------------------------------------------------
 Rotational constants (GHZ):           0.5018560           0.3658073           0.2802281
 Standard basis: 6-31G(d,p) (6D, 7F)
 There are   400 symmetry adapted cartesian basis functions of A   symmetry.
 There are   400 symmetry adapted basis functions of A   symmetry.
   400 basis functions,   686 primitive gaussians,   400 cartesian basis functions
    67 alpha electrons       67 beta electrons
       nuclear repulsion energy      1426.4094914045 Hartrees.
 NAtoms=   44 NActive=   44 NUniq=   44 SFac= 1.00D+00 NAtFMM=   60 NAOKFM=F Big=F
 Integral buffers will be    131072 words long.
 Raffenetti 1 integral format.
 Two-electron integral symmetry is turned on.
 ------------------------------------------------------------------------------
 Polarizable Continuum Model (PCM)
 =================================
 Model                : PCM.
 Atomic radii         : UFF (Universal Force Field).
 Polarization charges : Total charges.
 Charge compensation  : None.
 Solution method      : On-the-fly selection.
 Cavity type          : Scaled VdW (van der Waals Surface) (Alpha=1.100).
 Cavity algorithm     : GePol (No added spheres)
                        Default sphere list used, NSphG=   44.
                        Lebedev-Laikov grids with approx.  5.0 points / Ang**2.
                        Smoothing algorithm: York/Karplus (Gamma=1.0000).
                        Polarization charges: spherical gaussians, with
                                              point-specific exponents (IZeta= 3).
                        Self-potential: point-specific (ISelfS= 7).
                        Self-field    : sphere-specific E.n sum rule (ISelfD= 2).
 Solvent              : Water, Eps=  78.355300 Eps(inf)=   1.777849
 ------------------------------------------------------------------------------
 One-electron integrals computed using PRISM.
 NBasis=   400 RedAO= T EigKep=  4.57D-04  NBF=   400
 NBsUse=   400 1.00D-06 EigRej= -1.00D+00 NBFU=   400
 Initial guess from the checkpoint file:  "G6.chk"
 B after Tr=    -0.000000   -0.000000   -0.000000
         Rot=    1.000000    0.000000   -0.000000   -0.000000 Ang=   0.00 deg.
 Requested convergence on RMS density matrix=1.00D-08 within 128 cycles.
 Requested convergence on MAX density matrix=1.00D-06.
 Requested convergence on             energy=1.00D-06.
 No special actions if energy rises.
 Inv3:  Mode=1 IEnd=    19860987.
 Iteration    1 A*A^-1 deviation from unit magnitude is 5.11D-15 for   2555.
 Iteration    1 A*A^-1 deviation from orthogonality  is 3.13D-15 for   2550   1076.
 Iteration    1 A^-1*A deviation from unit magnitude is 5.11D-15 for   2555.
 Iteration    1 A^-1*A deviation from orthogonality  is 2.08D-15 for   2566   1984.
 Error on total polarization charges =  0.01053
 SCF Done:  E(RHF) =  -713.264600804     A.U. after   13 cycles
            NFock= 13  Conv=0.39D-08     -V/T= 2.0019

 **********************************************************************

            Population analysis using the SCF density.

 **********************************************************************

 Orbital symmetries:
       Occupied  (A) (A) (A) (A) (A) (A) (A) (A) (A) (A) (A) (A)
                 (A) (A) (A) (A) (A) (A) (A) (A) (A) (A) (A) (A)
                 (A) (A) (A) (A) (A) (A) (A) (A) (A) (A) (A) (A)
                 (A) (A) (A) (A) (A) (A) (A) (A) (A) (A) (A) (A)
                 (A) (A) (A) (A) (A) (A) (A) (A) (A) (A) (A) (A)
                 (A) (A) (A) (A) (A) (A) (A)
       Virtual   (A) (A) (A) (A) (A) (A) (A) (A) (A) (A) (A) (A)
                 (A) (A) (A) (A) (A) (A) (A) (A) (A) (A) (A) (A)
                 (A) (A) (A) (A) (A) (A) (A) (A) (A) (A) (A) (A)
                 (A) (A) (A) (A) (A) (A) (A) (A) (A) (A) (A) (A)
                 (A) (A) (A) (A) (A) (A) (A) (A) (A) (A) (A) (A)
                 (A) (A) (A) (A) (A) (A) (A) (A) (A) (A) (A) (A)
                 (A) (A) (A) (A) (A) (A) (A) (A) (A) (A) (A) (A)
                 (A) (A) (A) (A) (A) (A) (A) (A) (A) (A) (A) (A)
                 (A) (A) (A) (A) (A) (A) (A) (A) (A) (A) (A) (A)
                 (A) (A) (A) (A) (A) (A) (A) (A) (A) (A) (A) (A)
                 (A) (A) (A) (A) (A) (A) (A) (A) (A) (A) (A) (A)
                 (A) (A) (A) (A) (A) (A) (A) (A) (A) (A) (A) (A)
                 (A) (A) (A) (A) (A) (A) (A) (A) (A) (A) (A) (A)
                 (A) (A) (A) (A) (A) (A) (A) (A) (A) (A) (A) (A)
                 (A) (A) (A) (A) (A) (A) (A) (A) (A) (A) (A) (A)
                 (A) (A) (A) (A) (A) (A) (A) (A) (A) (A) (A) (A)
                 (A) (A) (A) (A) (A) (A) (A) (A) (A) (A) (A) (A)
                 (A) (A) (A) (A) (A) (A) (A) (A) (A) (A) (A) (A)
                 (A) (A) (A) (A) (A) (A) (A) (A) (A) (A) (A) (A)
                 (A) (A) (A) (A) (A) (A) (A) (A) (A) (A) (A) (A)
                 (A) (A) (A) (A) (A) (A) (A) (A) (A) (A) (A) (A)
                 (A) (A) (A) (A) (A) (A) (A) (A) (A) (A) (A) (A)
                 (A) (A) (A) (A) (A) (A) (A) (A) (A) (A) (A) (A)
                 (A) (A) (A) (A) (A) (A) (A) (A) (A) (A) (A) (A)
                 (A) (A) (A) (A) (A) (A) (A) (A) (A) (A) (A) (A)
                 (A) (A) (A) (A) (A) (A) (A) (A) (A) (A) (A) (A)
                 (A) (A) (A) (A) (A) (A) (A) (A) (A) (A) (A) (A)
                 (A) (A) (A) (A) (A) (A) (A) (A) (A)
 The electronic state is 1-A.
 Alpha  occ. eigenvalues --  -15.69807 -11.33223 -11.29453 -11.29444 -11.26684
 Alpha  occ. eigenvalues --  -11.25437 -11.25424 -11.25022 -11.24866 -11.24849
 Alpha  occ. eigenvalues --  -11.24817 -11.24727 -11.24367 -11.24362 -11.23491
 Alpha  occ. eigenvalues --  -11.23124 -11.23080 -11.22321  -1.32093  -1.17406
 Alpha  occ. eigenvalues --   -1.13432  -1.09060  -1.05942  -1.04997  -1.03292
 Alpha  occ. eigenvalues --   -1.01842  -0.99630  -0.91901  -0.89310  -0.87388
 Alpha  occ. eigenvalues --   -0.85319  -0.83194  -0.81493  -0.81058  -0.76134
 Alpha  occ. eigenvalues --   -0.71678  -0.71231  -0.69461  -0.66367  -0.65069
 Alpha  occ. eigenvalues --   -0.64834  -0.64373  -0.63759  -0.61511  -0.60722
 Alpha  occ. eigenvalues --   -0.60563  -0.60251  -0.59184  -0.57189  -0.56701
 Alpha  occ. eigenvalues --   -0.56064  -0.54349  -0.54284  -0.52877  -0.52442
 Alpha  occ. eigenvalues --   -0.51374  -0.50479  -0.50068  -0.49557  -0.48224
 Alpha  occ. eigenvalues --   -0.47574  -0.47313  -0.46387  -0.45418  -0.44040
 Alpha  occ. eigenvalues --   -0.34895  -0.34753
 Alpha virt. eigenvalues --    0.10857   0.12242   0.18786   0.21149   0.21708
 Alpha virt. eigenvalues --    0.23981   0.24804   0.25193   0.25882   0.26536
 Alpha virt. eigenvalues --    0.26664   0.27608   0.28496   0.28700   0.29522
 Alpha virt. eigenvalues --    0.29957   0.30748   0.30957   0.31301   0.31834
 Alpha virt. eigenvalues --    0.31937   0.32383   0.32987   0.33078   0.33417
 Alpha virt. eigenvalues --    0.34641   0.34897   0.35192   0.35736   0.36911
 Alpha virt. eigenvalues --    0.37133   0.37930   0.39237   0.40051   0.41187
 Alpha virt. eigenvalues --    0.41629   0.42158   0.43496   0.44690   0.45517
 Alpha virt. eigenvalues --    0.45673   0.46089   0.47115   0.47309   0.52113
 Alpha virt. eigenvalues --    0.53891   0.54353   0.63270   0.66806   0.68413
 Alpha virt. eigenvalues --    0.68992   0.70426   0.70973   0.72506   0.72538
 Alpha virt. eigenvalues --    0.73037   0.73516   0.74094   0.74453   0.76186
 Alpha virt. eigenvalues --    0.76650   0.78617   0.79600   0.79688   0.80829
 Alpha virt. eigenvalues --    0.82268   0.82482   0.83333   0.84222   0.84920
 Alpha virt. eigenvalues --    0.87738   0.88685   0.88904   0.89657   0.91387
 Alpha virt. eigenvalues --    0.92135   0.92655   0.94874   0.95702   0.96335
 Alpha virt. eigenvalues --    0.96815   0.97028   0.97389   0.99740   1.00952
 Alpha virt. eigenvalues --    1.01649   1.04792   1.05087   1.06337   1.06635
 Alpha virt. eigenvalues --    1.07006   1.07510   1.07783   1.08770   1.09261
 Alpha virt. eigenvalues --    1.09834   1.10649   1.11263   1.11847   1.11985
 Alpha virt. eigenvalues --    1.12981   1.13046   1.13684   1.13952   1.14829
 Alpha virt. eigenvalues --    1.15418   1.16199   1.16369   1.17388   1.17513
 Alpha virt. eigenvalues --    1.20030   1.20360   1.21123   1.21395   1.22317
 Alpha virt. eigenvalues --    1.23702   1.25464   1.26573   1.27013   1.28455
 Alpha virt. eigenvalues --    1.29929   1.31735   1.33091   1.34605   1.35643
 Alpha virt. eigenvalues --    1.35765   1.38855   1.39780   1.40820   1.42108
 Alpha virt. eigenvalues --    1.42778   1.46770   1.49569   1.50089   1.50578
 Alpha virt. eigenvalues --    1.53062   1.53731   1.57902   1.59274   1.62193
 Alpha virt. eigenvalues --    1.63554   1.64953   1.66418   1.66573   1.67148
 Alpha virt. eigenvalues --    1.67503   1.69985   1.70943   1.71833   1.73218
 Alpha virt. eigenvalues --    1.79010   1.83122   1.83457   1.86225   1.87299
 Alpha virt. eigenvalues --    1.89950   1.90559   1.91126   1.95791   1.97752
 Alpha virt. eigenvalues --    1.98705   1.99461   2.01607   2.02937   2.04251
 Alpha virt. eigenvalues --    2.07922   2.08644   2.10395   2.11149   2.11401
 Alpha virt. eigenvalues --    2.12619   2.12785   2.14180   2.15260   2.15848
 Alpha virt. eigenvalues --    2.16275   2.16919   2.17216   2.20540   2.20952
 Alpha virt. eigenvalues --    2.21322   2.22043   2.23264   2.24671   2.24937
 Alpha virt. eigenvalues --    2.25879   2.26351   2.27511   2.29138   2.29668
 Alpha virt. eigenvalues --    2.30739   2.32260   2.32687   2.35589   2.37647
 Alpha virt. eigenvalues --    2.39575   2.39983   2.41281   2.42274   2.42538
 Alpha virt. eigenvalues --    2.43865   2.44307   2.45381   2.46211   2.46837
 Alpha virt. eigenvalues --    2.47724   2.48536   2.49764   2.51858   2.52332
 Alpha virt. eigenvalues --    2.53144   2.53725   2.56851   2.57556   2.60058
 Alpha virt. eigenvalues --    2.60222   2.61212   2.62583   2.63813   2.64036
 Alpha virt. eigenvalues --    2.64763   2.65116   2.65808   2.67090   2.67647
 Alpha virt. eigenvalues --    2.69236   2.69341   2.69874   2.70515   2.70836
 Alpha virt. eigenvalues --    2.71810   2.72673   2.72792   2.74982   2.77444
 Alpha virt. eigenvalues --    2.77965   2.78207   2.80216   2.81999   2.82423
 Alpha virt. eigenvalues --    2.83731   2.84860   2.85435   2.85900   2.86371
 Alpha virt. eigenvalues --    2.88292   2.89515   2.90320   2.91191   2.92730
 Alpha virt. eigenvalues --    2.93476   2.95460   2.96726   2.96794   2.97313
 Alpha virt. eigenvalues --    2.99816   3.02018   3.02300   3.03815   3.04993
 Alpha virt. eigenvalues --    3.06275   3.07797   3.08075   3.08904   3.09999
 Alpha virt. eigenvalues --    3.13105   3.13912   3.15694   3.16167   3.16740
 Alpha virt. eigenvalues --    3.17521   3.20240   3.21684   3.21771   3.22216
 Alpha virt. eigenvalues --    3.23586   3.23720   3.24070   3.26525   3.26736
 Alpha virt. eigenvalues --    3.27483   3.28627   3.29570   3.31122   3.36732
 Alpha virt. eigenvalues --    3.36978   3.40850   3.53108   3.55616   3.59471
 Alpha virt. eigenvalues --    3.59924   3.61871   3.64707   3.65193   3.65984
 Alpha virt. eigenvalues --    3.67312   3.67664   3.68063   3.69774   3.71936
 Alpha virt. eigenvalues --    3.74661   3.75060   3.79308   3.83920   3.83986
 Alpha virt. eigenvalues --    3.85001   3.85602   3.86431   3.87723   3.88737
 Alpha virt. eigenvalues --    3.89528   3.89646   3.93888   3.95168   4.27434
 Alpha virt. eigenvalues --    4.54832   4.56111   4.59839   4.66981   4.74190
 Alpha virt. eigenvalues --    4.77626   4.81799   4.85301   4.89674   4.90362
 Alpha virt. eigenvalues --    4.93438   5.03703   5.13685   5.14424   5.15630
 Alpha virt. eigenvalues --    5.18586   5.19779   5.28029
          Condensed to atoms (all electrons):
               1          2          3          4          5          6
     1  C    4.846589   0.544815   0.543074  -0.049969  -0.048875  -0.029221
     2  C    0.544815   4.850972  -0.044635   0.543913  -0.034161  -0.045763
     3  C    0.543074  -0.044635   4.852972  -0.035095   0.546025  -0.046644
     4  C   -0.049969   0.543913  -0.035095   4.856413  -0.033619   0.543435
     5  C   -0.048875  -0.034161   0.546025  -0.033619   4.853429   0.543394
     6  C   -0.029221  -0.045763  -0.046644   0.543435   0.543394   4.970211
     7  C   -0.000001   0.000005   0.000007   0.000016   0.000086  -0.000303
     8  C    0.000007  -0.000114   0.000007  -0.002027   0.000102  -0.001296
     9  C    0.000010   0.000009  -0.000167   0.000116  -0.003737  -0.002196
    10  C    0.000000   0.000000   0.000000  -0.000002  -0.000000  -0.000008
    11  C   -0.000000   0.000003  -0.000001   0.000205  -0.000012   0.000063
    12  C   -0.000000  -0.000001   0.000003  -0.000013   0.000162   0.000063
    13  C   -0.000018   0.000262  -0.000032  -0.005917   0.001051  -0.053036
    14  C   -0.000022  -0.000033   0.000333   0.001282  -0.007402  -0.058009
    15  C    0.000005  -0.000354   0.000012  -0.006946   0.000439  -0.003976
    16  C    0.000006   0.000011  -0.000308   0.000402  -0.005714  -0.003994
    17  C    0.000020   0.002836   0.002971  -0.038602  -0.038346   0.316109
    18  N    0.000018   0.000057   0.000038   0.000728   0.000222  -0.070445
    19  H    0.395487  -0.028036  -0.027956   0.002465   0.002415   0.000248
    20  H   -0.026816   0.394689   0.002167  -0.026816   0.000272   0.001860
    21  H   -0.027168   0.002181   0.394950   0.000289  -0.027289   0.001936
    22  H    0.002223  -0.019142   0.000153   0.398652   0.001833  -0.036082
    23  H    0.002161   0.000144  -0.018783   0.001858   0.399021  -0.034793
    24  H    0.000000  -0.000000  -0.000000  -0.000002  -0.000002  -0.000040
    25  H    0.000000  -0.000000  -0.000000  -0.000002  -0.000004   0.000076
    26  H   -0.000000   0.000001  -0.000000   0.000038   0.000003  -0.000055
    27  H    0.000002   0.000028  -0.000047   0.001736   0.000039   0.003799
    28  H    0.000006  -0.000059   0.000066   0.000073   0.001749   0.004108
    29  H   -0.000000  -0.000000   0.000001   0.000004   0.000077  -0.000040
    30  H    0.000000   0.000000   0.000000   0.000000   0.000000  -0.000000
    31  H   -0.000000   0.000000   0.000000  -0.000007  -0.000006  -0.000008
    32  H   -0.000000  -0.000000  -0.000000   0.000006   0.000000   0.000007
    33  H    0.000000  -0.000000   0.000000  -0.000006   0.000000  -0.000006
    34  H    0.000000   0.000000  -0.000000  -0.000000  -0.000005  -0.000006
    35  H   -0.000000  -0.000000  -0.000000   0.000000   0.000004   0.000008
    36  H    0.000000  -0.000002  -0.000000  -0.000014  -0.000027   0.004944
    37  H   -0.000008   0.000167   0.000004  -0.000869  -0.000178  -0.007192
    38  H   -0.000013   0.000004   0.000295  -0.000203  -0.002573  -0.007799
    39  H    0.000000  -0.000000  -0.000003  -0.000032   0.000063   0.005149
    40  H   -0.000011   0.000583  -0.000089   0.000880  -0.000071   0.003351
    41  H   -0.000000  -0.000015   0.000000  -0.000222  -0.000016   0.000024
    42  H   -0.000000   0.000000  -0.000017  -0.000014  -0.000121   0.000043
    43  H   -0.000010  -0.000090   0.000506  -0.000087   0.001255   0.003424
    44  H   -0.000000   0.000001   0.000001  -0.000130  -0.000105   0.003767
               7          8          9         10         11         12
     1  C   -0.000001   0.000007   0.000010   0.000000  -0.000000  -0.000000
     2  C    0.000005  -0.000114   0.000009   0.000000   0.000003  -0.000001
     3  C    0.000007   0.000007  -0.000167   0.000000  -0.000001   0.000003
     4  C    0.000016  -0.002027   0.000116  -0.000002   0.000205  -0.000013
     5  C    0.000086   0.000102  -0.003737  -0.000000  -0.000012   0.000162
     6  C   -0.000303  -0.001296  -0.002196  -0.000008   0.000063   0.000063
     7  C    4.997205   0.338607   0.338252  -0.000000   0.000000   0.000000
     8  C    0.338607   4.977755  -0.057577   0.000000   0.000000   0.000001
     9  C    0.338252  -0.057577   4.984156   0.000000   0.000001   0.000000
    10  C   -0.000000   0.000000   0.000000   5.008743   0.330910   0.330850
    11  C    0.000000   0.000000   0.000001   0.330910   5.016981  -0.056005
    12  C    0.000000   0.000001   0.000000   0.330850  -0.056005   5.017495
    13  C   -0.056718   0.334247  -0.006166   0.000002  -0.000103  -0.000093
    14  C   -0.058258  -0.006133   0.333054   0.000002  -0.000089  -0.000092
    15  C   -0.000008   0.000215  -0.000042  -0.055512   0.333707  -0.006740
    16  C   -0.000008  -0.000042   0.000232  -0.055542  -0.006770   0.333928
    17  C   -0.005628  -0.041747  -0.043531  -0.000384   0.003053   0.003072
    18  N   -0.000236   0.002245   0.002273   0.001471  -0.052445  -0.052326
    19  H   -0.000000   0.000000   0.000000  -0.000000  -0.000000  -0.000000
    20  H    0.000000  -0.000001  -0.000000  -0.000000   0.000000   0.000000
    21  H    0.000000  -0.000000  -0.000002  -0.000000   0.000000   0.000000
    22  H   -0.000029   0.000130   0.000003   0.000000   0.000011  -0.000000
    23  H   -0.000044   0.000004   0.000018   0.000000  -0.000000  -0.000002
    24  H    0.415017  -0.038435  -0.038928   0.000000   0.000000   0.000000
    25  H    0.408699  -0.043427  -0.043237   0.000000  -0.000000  -0.000000
    26  H   -0.036863   0.416150   0.004358   0.000000  -0.000000  -0.000000
    27  H   -0.042170   0.410239  -0.002230   0.000000  -0.000000  -0.000000
    28  H   -0.042095  -0.002309   0.410513   0.000000  -0.000000  -0.000000
    29  H   -0.036852   0.004347   0.416377   0.000000  -0.000000  -0.000000
    30  H    0.000000  -0.000000  -0.000000   0.415936  -0.036065  -0.036075
    31  H    0.000000  -0.000000  -0.000000   0.409074  -0.043129  -0.043180
    32  H    0.000000  -0.000000  -0.000000  -0.033668   0.415029   0.004083
    33  H    0.000000  -0.000000  -0.000000  -0.042460   0.409672  -0.002309
    34  H    0.000000  -0.000000  -0.000000  -0.042483  -0.002307   0.409620
    35  H    0.000000  -0.000000  -0.000000  -0.033662   0.004084   0.414995
    36  H   -0.002287  -0.032376   0.000550   0.000002  -0.000086  -0.000010
    37  H    0.004150  -0.035366  -0.000224  -0.000006   0.000155   0.000001
    38  H    0.004298  -0.000203  -0.036682  -0.000006   0.000001   0.000168
    39  H   -0.002907   0.000576  -0.031502   0.000002  -0.000008  -0.000078
    40  H    0.000000  -0.000020  -0.000002  -0.002907  -0.032356   0.000184
    41  H   -0.000004   0.000201  -0.000004   0.003515  -0.034040  -0.000237
    42  H   -0.000005  -0.000005   0.000225   0.003521  -0.000237  -0.034279
    43  H    0.000000  -0.000001  -0.000020  -0.002911   0.000208  -0.032364
    44  H    0.000015  -0.000103  -0.000100  -0.000542  -0.001431  -0.001459
              13         14         15         16         17         18
     1  C   -0.000018  -0.000022   0.000005   0.000006   0.000020   0.000018
     2  C    0.000262  -0.000033  -0.000354   0.000011   0.002836   0.000057
     3  C   -0.000032   0.000333   0.000012  -0.000308   0.002971   0.000038
     4  C   -0.005917   0.001282  -0.006946   0.000402  -0.038602   0.000728
     5  C    0.001051  -0.007402   0.000439  -0.005714  -0.038346   0.000222
     6  C   -0.053036  -0.058009  -0.003976  -0.003994   0.316109  -0.070445
     7  C   -0.056718  -0.058258  -0.000008  -0.000008  -0.005628  -0.000236
     8  C    0.334247  -0.006133   0.000215  -0.000042  -0.041747   0.002245
     9  C   -0.006166   0.333054  -0.000042   0.000232  -0.043531   0.002273
    10  C    0.000002   0.000002  -0.055512  -0.055542  -0.000384   0.001471
    11  C   -0.000103  -0.000089   0.333707  -0.006770   0.003053  -0.052445
    12  C   -0.000093  -0.000092  -0.006740   0.333928   0.003072  -0.052326
    13  C    5.042928  -0.059881  -0.005745   0.002746   0.355244  -0.060280
    14  C   -0.059881   5.052692   0.002639  -0.005950   0.358605  -0.056511
    15  C   -0.005745   0.002639   4.978605  -0.031350  -0.035070   0.155273
    16  C    0.002746  -0.005950  -0.031350   4.975745  -0.035175   0.155438
    17  C    0.355244   0.358605  -0.035070  -0.035175   5.112343   0.195226
    18  N   -0.060280  -0.056511   0.155273   0.155438   0.195226   7.251932
    19  H   -0.000000  -0.000000   0.000000   0.000000   0.000005  -0.000000
    20  H    0.000003   0.000001  -0.000003  -0.000000  -0.000106   0.000001
    21  H    0.000001   0.000007  -0.000000  -0.000003  -0.000109   0.000001
    22  H   -0.004326  -0.000053  -0.000714   0.000021  -0.001774   0.000044
    23  H   -0.000072  -0.006207   0.000017  -0.000413  -0.002229   0.000032
    24  H    0.004658   0.004782   0.000000   0.000000  -0.000053   0.000004
    25  H   -0.002899  -0.003572   0.000001   0.000001   0.000297  -0.000036
    26  H   -0.036082  -0.000297  -0.000000   0.000001   0.003982  -0.000046
    27  H   -0.043027   0.000135  -0.000010   0.000000  -0.005190  -0.000009
    28  H    0.000189  -0.042716   0.000000  -0.000011  -0.005917  -0.000004
    29  H   -0.000289  -0.036412   0.000001  -0.000000   0.004027  -0.000044
    30  H   -0.000000  -0.000000   0.004410   0.004405   0.000008  -0.000149
    31  H    0.000001   0.000001  -0.002860  -0.002806  -0.000038   0.000128
    32  H    0.000003   0.000001  -0.035291  -0.000221  -0.000053   0.003260
    33  H    0.000025  -0.000000  -0.043052   0.000337  -0.000164  -0.002677
    34  H   -0.000001   0.000022   0.000332  -0.042994  -0.000159  -0.002689
    35  H    0.000001   0.000003  -0.000222  -0.035299  -0.000054   0.003268
    36  H    0.409559  -0.004618  -0.000876   0.000035  -0.041585  -0.002943
    37  H    0.416928   0.004391  -0.003348  -0.000161  -0.038863  -0.001427
    38  H    0.004340   0.419568  -0.000162  -0.003530  -0.038478  -0.001406
    39  H   -0.004375   0.409805   0.000014  -0.001014  -0.041135  -0.002449
    40  H    0.000023  -0.000053   0.411413  -0.001629  -0.003701  -0.039985
    41  H   -0.001585   0.000007   0.425387   0.002310  -0.003382  -0.036208
    42  H    0.000003  -0.001851   0.002306   0.425599  -0.003655  -0.036117
    43  H   -0.000051  -0.000107  -0.001705   0.411433  -0.003566  -0.039824
    44  H   -0.002068  -0.002058  -0.024388  -0.024342  -0.018049   0.342641
              19         20         21         22         23         24
     1  C    0.395487  -0.026816  -0.027168   0.002223   0.002161   0.000000
     2  C   -0.028036   0.394689   0.002181  -0.019142   0.000144  -0.000000
     3  C   -0.027956   0.002167   0.394950   0.000153  -0.018783  -0.000000
     4  C    0.002465  -0.026816   0.000289   0.398652   0.001858  -0.000002
     5  C    0.002415   0.000272  -0.027289   0.001833   0.399021  -0.000002
     6  C    0.000248   0.001860   0.001936  -0.036082  -0.034793  -0.000040
     7  C   -0.000000   0.000000   0.000000  -0.000029  -0.000044   0.415017
     8  C    0.000000  -0.000001  -0.000000   0.000130   0.000004  -0.038435
     9  C    0.000000  -0.000000  -0.000002   0.000003   0.000018  -0.038928
    10  C   -0.000000  -0.000000  -0.000000   0.000000   0.000000   0.000000
    11  C   -0.000000   0.000000   0.000000   0.000011  -0.000000   0.000000
    12  C   -0.000000   0.000000   0.000000  -0.000000  -0.000002   0.000000
    13  C   -0.000000   0.000003   0.000001  -0.004326  -0.000072   0.004658
    14  C   -0.000000   0.000001   0.000007  -0.000053  -0.006207   0.004782
    15  C    0.000000  -0.000003  -0.000000  -0.000714   0.000017   0.000000
    16  C    0.000000  -0.000000  -0.000003   0.000021  -0.000413   0.000000
    17  C    0.000005  -0.000106  -0.000109  -0.001774  -0.002229  -0.000053
    18  N   -0.000000   0.000001   0.000001   0.000044   0.000032   0.000004
    19  H    0.476835  -0.001579  -0.001646  -0.000102  -0.000100  -0.000000
    20  H   -0.001579   0.474569  -0.000101  -0.001285   0.000009   0.000000
    21  H   -0.001646  -0.000101   0.476582   0.000009  -0.001286   0.000000
    22  H   -0.000102  -0.001285   0.000009   0.473985  -0.000095  -0.000000
    23  H   -0.000100   0.000009  -0.001286  -0.000095   0.472673   0.000000
    24  H   -0.000000   0.000000   0.000000  -0.000000   0.000000   0.565524
    25  H    0.000000  -0.000000  -0.000000   0.000001   0.000002  -0.027509
    26  H   -0.000000  -0.000000   0.000000   0.000024  -0.000000  -0.002156
    27  H    0.000000  -0.000002  -0.000000   0.000342   0.000010  -0.004175
    28  H    0.000000  -0.000000  -0.000001   0.000012   0.000392  -0.003877
    29  H   -0.000000   0.000000  -0.000000  -0.000000   0.000052  -0.002360
    30  H   -0.000000   0.000000   0.000000   0.000000   0.000000  -0.000000
    31  H    0.000000   0.000000   0.000000  -0.000001  -0.000000  -0.000000
    32  H    0.000000  -0.000000  -0.000000  -0.000000   0.000000  -0.000000
    33  H    0.000000   0.000000  -0.000000  -0.000001  -0.000000  -0.000000
    34  H    0.000000  -0.000000  -0.000000  -0.000000  -0.000001  -0.000000
    35  H    0.000000  -0.000000  -0.000000   0.000000  -0.000000  -0.000000
    36  H    0.000000  -0.000000  -0.000000   0.000158   0.000003  -0.000066
    37  H   -0.000000   0.000006   0.000000  -0.003196  -0.000001  -0.000091
    38  H    0.000000   0.000000   0.000008  -0.000001  -0.005415  -0.000093
    39  H   -0.000000  -0.000000  -0.000000   0.000003   0.000258  -0.000053
    40  H    0.000001   0.000001  -0.000000  -0.000864   0.000005  -0.000000
    41  H    0.000000  -0.000001  -0.000000  -0.000220  -0.000001   0.000000
    42  H    0.000000  -0.000000  -0.000000  -0.000001  -0.000185   0.000000
    43  H    0.000000  -0.000000  -0.000001   0.000005  -0.000397  -0.000000
    44  H    0.000000  -0.000000  -0.000000  -0.000007  -0.000001  -0.000000
              25         26         27         28         29         30
     1  C    0.000000  -0.000000   0.000002   0.000006  -0.000000   0.000000
     2  C   -0.000000   0.000001   0.000028  -0.000059  -0.000000   0.000000
     3  C   -0.000000  -0.000000  -0.000047   0.000066   0.000001   0.000000
     4  C   -0.000002   0.000038   0.001736   0.000073   0.000004   0.000000
     5  C   -0.000004   0.000003   0.000039   0.001749   0.000077   0.000000
     6  C    0.000076  -0.000055   0.003799   0.004108  -0.000040  -0.000000
     7  C    0.408699  -0.036863  -0.042170  -0.042095  -0.036852   0.000000
     8  C   -0.043427   0.416150   0.410239  -0.002309   0.004347  -0.000000
     9  C   -0.043237   0.004358  -0.002230   0.410513   0.416377  -0.000000
    10  C    0.000000   0.000000   0.000000   0.000000   0.000000   0.415936
    11  C   -0.000000  -0.000000  -0.000000  -0.000000  -0.000000  -0.036065
    12  C   -0.000000  -0.000000  -0.000000  -0.000000  -0.000000  -0.036075
    13  C   -0.002899  -0.036082  -0.043027   0.000189  -0.000289  -0.000000
    14  C   -0.003572  -0.000297   0.000135  -0.042716  -0.036412  -0.000000
    15  C    0.000001  -0.000000  -0.000010   0.000000   0.000001   0.004410
    16  C    0.000001   0.000001   0.000000  -0.000011  -0.000000   0.004405
    17  C    0.000297   0.003982  -0.005190  -0.005917   0.004027   0.000008
    18  N   -0.000036  -0.000046  -0.000009  -0.000004  -0.000044  -0.000149
    19  H    0.000000  -0.000000   0.000000   0.000000  -0.000000  -0.000000
    20  H   -0.000000  -0.000000  -0.000002  -0.000000   0.000000   0.000000
    21  H   -0.000000   0.000000  -0.000000  -0.000001  -0.000000   0.000000
    22  H    0.000001   0.000024   0.000342   0.000012  -0.000000   0.000000
    23  H    0.000002  -0.000000   0.000010   0.000392   0.000052   0.000000
    24  H   -0.027509  -0.002156  -0.004175  -0.003877  -0.002360  -0.000000
    25  H    0.586185  -0.004159   0.004516   0.004488  -0.003914  -0.000000
    26  H   -0.004159   0.548710  -0.027010  -0.000089  -0.000097  -0.000000
    27  H    0.004516  -0.027010   0.571825   0.002226  -0.000089  -0.000000
    28  H    0.004488  -0.000089   0.002226   0.569042  -0.026128  -0.000000
    29  H   -0.003914  -0.000097  -0.000089  -0.026128   0.547484  -0.000000
    30  H   -0.000000  -0.000000  -0.000000  -0.000000  -0.000000   0.540184
    31  H    0.000000   0.000000   0.000000   0.000000   0.000000  -0.025248
    32  H    0.000000   0.000000  -0.000000  -0.000000   0.000000  -0.002515
    33  H    0.000000   0.000000   0.000000  -0.000000   0.000000  -0.003579
    34  H   -0.000000   0.000000  -0.000000   0.000000   0.000000  -0.003583
    35  H    0.000000   0.000000   0.000000  -0.000000   0.000000  -0.002516
    36  H    0.002209  -0.003719   0.004127   0.000064  -0.000036  -0.000000
    37  H   -0.000111  -0.003057  -0.004346  -0.000049   0.000011   0.000000
    38  H   -0.000111   0.000011  -0.000042  -0.003848  -0.003434   0.000000
    39  H    0.002405  -0.000043   0.000064   0.003995  -0.003187  -0.000000
[...]
     9  C   -0.000000  -0.000000  -0.000000  -0.000000  -0.000000   0.000550
    10  C    0.409074  -0.033668  -0.042460  -0.042483  -0.033662   0.000002
    11  C   -0.043129   0.415029   0.409672  -0.002307   0.004084  -0.000086
    12  C   -0.043180   0.004083  -0.002309   0.409620   0.414995  -0.000010
    13  C    0.000001   0.000003   0.000025  -0.000001   0.000001   0.409559
    14  C    0.000001   0.000001  -0.000000   0.000022   0.000003  -0.004618
    15  C   -0.002860  -0.035291  -0.043052   0.000332  -0.000222  -0.000876
    16  C   -0.002806  -0.000221   0.000337  -0.042994  -0.035299   0.000035
    17  C   -0.000038  -0.000053  -0.000164  -0.000159  -0.000054  -0.041585
    18  N    0.000128   0.003260  -0.002677  -0.002689   0.003268  -0.002943
    19  H    0.000000   0.000000   0.000000   0.000000   0.000000   0.000000
    20  H    0.000000  -0.000000   0.000000  -0.000000  -0.000000  -0.000000
    21  H    0.000000  -0.000000  -0.000000  -0.000000  -0.000000  -0.000000
    22  H   -0.000001  -0.000000  -0.000001  -0.000000   0.000000   0.000158
    23  H   -0.000000   0.000000  -0.000000  -0.000001  -0.000000   0.000003
    24  H   -0.000000  -0.000000  -0.000000  -0.000000  -0.000000  -0.000066
    25  H    0.000000   0.000000   0.000000  -0.000000   0.000000   0.002209
    26  H    0.000000   0.000000   0.000000   0.000000   0.000000  -0.003719
    27  H    0.000000  -0.000000   0.000000  -0.000000   0.000000   0.004127
    28  H    0.000000  -0.000000  -0.000000   0.000000  -0.000000   0.000064
    29  H    0.000000   0.000000   0.000000   0.000000   0.000000  -0.000036
    30  H   -0.025248  -0.002515  -0.003579  -0.003583  -0.002516  -0.000000
    31  H    0.567555  -0.003512   0.004223   0.004226  -0.003513  -0.000000
    32  H   -0.003512   0.518833  -0.022849  -0.000081  -0.000081   0.000000
    33  H    0.004223  -0.022849   0.552677   0.002213  -0.000081   0.000009
    34  H    0.004226  -0.000081   0.002213   0.552701  -0.022856  -0.000003
    35  H   -0.003513  -0.000081  -0.000081  -0.022856   0.518932   0.000000
    36  H   -0.000000   0.000000   0.000009  -0.000003   0.000000   0.538953
    37  H    0.000000   0.000005   0.000009   0.000000  -0.000000  -0.028308
    38  H    0.000000  -0.000000   0.000000   0.000006   0.000005  -0.000105
    39  H   -0.000000   0.000000  -0.000002   0.000010   0.000000   0.001631
    40  H    0.002340  -0.002135   0.003501   0.000061  -0.000025   0.000028
    41  H   -0.000073  -0.001785  -0.003181  -0.000031   0.000011   0.000060
    42  H   -0.000073   0.000010  -0.000031  -0.003166  -0.001781   0.000008
    43  H    0.002316  -0.000025   0.000059   0.003492  -0.002134  -0.000005
    44  H    0.000120  -0.000037   0.002951   0.002961  -0.000037   0.002411
              37         38         39         40         41         42
     1  C   -0.000008  -0.000013   0.000000  -0.000011  -0.000000  -0.000000
     2  C    0.000167   0.000004  -0.000000   0.000583  -0.000015   0.000000
     3  C    0.000004   0.000295  -0.000003  -0.000089   0.000000  -0.000017
     4  C   -0.000869  -0.000203  -0.000032   0.000880  -0.000222  -0.000014
     5  C   -0.000178  -0.002573   0.000063  -0.000071  -0.000016  -0.000121
     6  C   -0.007192  -0.007799   0.005149   0.003351   0.000024   0.000043
     7  C    0.004150   0.004298  -0.002907   0.000000  -0.000004  -0.000005
     8  C   -0.035366  -0.000203   0.000576  -0.000020   0.000201  -0.000005
     9  C   -0.000224  -0.036682  -0.031502  -0.000002  -0.000004   0.000225
    10  C   -0.000006  -0.000006   0.000002  -0.002907   0.003515   0.003521
    11  C    0.000155   0.000001  -0.000008  -0.032356  -0.034040  -0.000237
    12  C    0.000001   0.000168  -0.000078   0.000184  -0.000237  -0.034279
    13  C    0.416928   0.004340  -0.004375   0.000023  -0.001585   0.000003
    14  C    0.004391   0.419568   0.409805  -0.000053   0.000007  -0.001851
    15  C   -0.003348  -0.000162   0.000014   0.411413   0.425387   0.002306
    16  C   -0.000161  -0.003530  -0.001014  -0.001629   0.002310   0.425599
    17  C   -0.038863  -0.038478  -0.041135  -0.003701  -0.003382  -0.003655
    18  N   -0.001427  -0.001406  -0.002449  -0.039985  -0.036208  -0.036117
    19  H   -0.000000   0.000000  -0.000000   0.000001   0.000000   0.000000
    20  H    0.000006   0.000000  -0.000000   0.000001  -0.000001  -0.000000
    21  H    0.000000   0.000008  -0.000000  -0.000000  -0.000000  -0.000000
    22  H   -0.003196  -0.000001   0.000003  -0.000864  -0.000220  -0.000001
    23  H   -0.000001  -0.005415   0.000258   0.000005  -0.000001  -0.000185
    24  H   -0.000091  -0.000093  -0.000053  -0.000000   0.000000   0.000000
    25  H   -0.000111  -0.000111   0.002405   0.000000   0.000000   0.000000
    26  H   -0.003057   0.000011  -0.000043  -0.000000   0.000001   0.000000
    27  H   -0.004346  -0.000042   0.000064   0.000001   0.000004   0.000000
    28  H   -0.000049  -0.003848   0.003995  -0.000000   0.000000   0.000005
    29  H    0.000011  -0.003434  -0.003187   0.000000   0.000000  -0.000000
    30  H    0.000000   0.000000  -0.000000  -0.000083  -0.000076  -0.000077
    31  H    0.000000   0.000000  -0.000000   0.002340  -0.000073  -0.000073
    32  H    0.000005  -0.000000   0.000000  -0.002135  -0.001785   0.000010
    33  H    0.000009   0.000000  -0.000002   0.003501  -0.003181  -0.000031
    34  H    0.000000   0.000006   0.000010   0.000061  -0.000031  -0.003166
    35  H   -0.000000   0.000005   0.000000  -0.000025   0.000011  -0.001781
    36  H   -0.028308  -0.000105   0.001631   0.000028   0.000060   0.000008
    37  H    0.564637  -0.000097  -0.000099   0.000008  -0.003677   0.000001
    38  H   -0.000097   0.568088  -0.027876   0.000005   0.000001  -0.004106
    39  H   -0.000099  -0.027876   0.535492  -0.000003   0.000005   0.000075
    40  H    0.000008   0.000005  -0.000003   0.486663  -0.020811  -0.000034
    41  H   -0.003677   0.000001   0.000005  -0.020811   0.484713  -0.000072
    42  H    0.000001  -0.004106   0.000075  -0.000034  -0.000072   0.484379
    43  H    0.000005  -0.000036   0.000041   0.001718  -0.000036  -0.020659
    44  H   -0.000060  -0.000062   0.002237   0.003266  -0.002098  -0.002036
              43         44
     1  C   -0.000010  -0.000000
     2  C   -0.000090   0.000001
     3  C    0.000506   0.000001
     4  C   -0.000087  -0.000130
     5  C    0.001255  -0.000105
     6  C    0.003424   0.003767
     7  C    0.000000   0.000015
     8  C   -0.000001  -0.000103
     9  C   -0.000020  -0.000100
    10  C   -0.002911  -0.000542
    11  C    0.000208  -0.001431
    12  C   -0.032364  -0.001459
    13  C   -0.000051  -0.002068
    14  C   -0.000107  -0.002058
    15  C   -0.001705  -0.024388
    16  C    0.411433  -0.024342
    17  C   -0.003566  -0.018049
    18  N   -0.039824   0.342641
    19  H    0.000000   0.000000
    20  H   -0.000000  -0.000000
    21  H   -0.000001  -0.000000
    22  H    0.000005  -0.000007
    23  H   -0.000397  -0.000001
    24  H   -0.000000  -0.000000
    25  H    0.000000   0.000001
    26  H    0.000000  -0.000003
    27  H   -0.000000   0.000002
    28  H    0.000002   0.000002
    29  H   -0.000000  -0.000002
    30  H   -0.000082  -0.000066
    31  H    0.002316   0.000120
    32  H   -0.000025  -0.000037
    33  H    0.000059   0.002951
    34  H    0.003492   0.002961
    35  H   -0.002134  -0.000037
    36  H   -0.000005   0.002411
    37  H    0.000005  -0.000060
    38  H   -0.000036  -0.000062
    39  H    0.000041   0.002237
    40  H    0.001718   0.003266
    41  H   -0.000036  -0.002098
    42  H   -0.020659  -0.002036
    43  H    0.486084   0.003246
    44  H    0.003246   0.331421
 Mulliken charges:
               1
     1  C   -0.152291
     2  C   -0.168278
     3  C   -0.169811
     4  C   -0.151916
     5  C   -0.149381
     6  C   -0.005104
     7  C   -0.221941
     8  C   -0.223651
     9  C   -0.223796
    10  C   -0.233935
    11  C   -0.248999
    12  C   -0.249361
    13  C   -0.229450
    14  C   -0.237004
    15  C   -0.056402
    16  C   -0.055372
    17  C    0.088944
    18  N   -0.656044
    19  H    0.181964
    20  H    0.183132
    21  H    0.181644
    22  H    0.190284
    23  H    0.193365
    24  H    0.127856
    25  H    0.120101
    26  H    0.140398
    27  H    0.129251
    28  H    0.130168
    29  H    0.140503
    30  H    0.145171
    31  H    0.134469
    32  H    0.161015
    33  H    0.144724
    34  H    0.144719
    35  H    0.160950
    36  H    0.152317
    37  H    0.140253
    38  H    0.139481
    39  H    0.152941
    40  H    0.190746
    41  H    0.191537
    42  H    0.192346
    43  H    0.190315
    44  H    0.384141
 Sum of Mulliken charges =   1.00000
 Mulliken charges with hydrogens summed into heavy atoms:
               1
     1  C    0.029673
     2  C    0.014854
     3  C    0.011833
     4  C    0.038367
     5  C    0.043984
     6  C   -0.005104
     7  C    0.026016
     8  C    0.045998
     9  C    0.046875
    10  C    0.045705
    11  C    0.056741
    12  C    0.056308
    13  C    0.063119
    14  C    0.055418
    15  C    0.325882
    16  C    0.327289
    17  C    0.088944
    18  N   -0.271903
 Electronic spatial extent (au):  <R**2>=           4550.5006
 Charge=              1.0000 electrons
 Dipole moment (field-independent basis, Debye):
    X=             -4.6513    Y=             -2.3262    Z=             -0.0206  Tot=              5.2006
 Quadrupole moment (field-independent basis, Debye-Ang):
   XX=            -91.9679   YY=            -92.5404   ZZ=            -95.4107
   XY=              5.2481   XZ=             -0.3546   YZ=              0.1103
 Traceless Quadrupole moment (field-independent basis, Debye-Ang):
   XX=              1.3384   YY=              0.7659   ZZ=             -2.1044
   XY=              5.2481   XZ=             -0.3546   YZ=              0.1103
 Octapole moment (field-independent basis, Debye-Ang**2):
  XXX=            -66.1016  YYY=             15.6264  ZZZ=             -0.1553  XYY=             13.4967
  XXY=            -13.6714  XXZ=             -1.1360  XZZ=             -6.3254  YZZ=              5.5832
  YYZ=              1.0666  XYZ=             -0.6854
 Hexadecapole moment (field-independent basis, Debye-Ang**3):
 XXXX=          -2973.4350 YYYY=          -1872.9605 ZZZZ=           -892.5309 XXXY=            -12.5558
 XXXZ=             -1.3487 YYYX=            107.6500 YYYZ=              2.3747 ZZZX=             -2.2448
 ZZZY=              1.2627 XXYY=           -827.4246 XXZZ=           -644.5449 YYZZ=           -461.0581
 XXYZ=             -2.0073 YYXZ=             -0.6665 ZZXY=             10.5414
 N-N= 1.426409491405D+03 E-N=-4.492357422126D+03  KE= 7.119393391614D+02
 Merz-Kollman atomic radii used.

 **********************************************************************

            Electrostatic Properties Using The SCF Density

 **********************************************************************

       Atomic Center    1 is at   1.582681  3.476647  0.014862
       Atomic Center    2 is at   1.343026  2.820655  1.223134
       Atomic Center    3 is at   1.435443  2.791182 -1.193580
       Atomic Center    4 is at   0.955685  1.477853  1.221904
       Atomic Center    5 is at   1.049064  1.449878 -1.205678
       Atomic Center    6 is at   0.807916  0.789951  0.009923
       Atomic Center    7 is at   2.802689 -2.490280 -0.006468
       Atomic Center    8 is at   2.328758 -1.814342  1.280914
       Atomic Center    9 is at   2.374994 -1.711395 -1.250327
       Atomic Center   10 is at  -4.004938  0.221218 -0.027790
       Atomic Center   11 is at  -3.363882 -0.348895  1.247692
       Atomic Center   12 is at  -3.343067 -0.355848 -1.289378
       Atomic Center   13 is at   0.818627 -1.519805  1.248924
       Atomic Center   14 is at   0.856057 -1.465159 -1.253151
       Atomic Center   15 is at  -1.845736 -0.149666  1.247646
       Atomic Center   16 is at  -1.825093 -0.156957 -1.265395
       Atomic Center   17 is at   0.380870 -0.691124  0.010666
       Atomic Center   18 is at  -1.250420 -0.761282 -0.002332
       Atomic Center   19 is at   1.882288  4.519648  0.014083
       Atomic Center   20 is at   1.456047  3.352605  2.162296
       Atomic Center   21 is at   1.621972  3.305897 -2.130968
       Atomic Center   22 is at   0.771806  0.976269  2.163608
       Atomic Center   23 is at   0.938943  0.931632 -2.147670
       Atomic Center   24 is at   3.894021 -2.577609  0.009497
       Atomic Center   25 is at   2.403994 -3.512616 -0.055290
       Atomic Center   26 is at   2.568560 -2.446968  2.140801
       Atomic Center   27 is at   2.878498 -0.876463  1.423700
       Atomic Center   28 is at   2.901070 -0.750567 -1.278617
       Atomic Center   29 is at   2.667883 -2.261725 -2.149453
       Atomic Center   30 is at  -5.075396 -0.001732 -0.036137
       Atomic Center   31 is at  -3.904589  1.313971 -0.029981
       Atomic Center   32 is at  -3.798051  0.137996  2.125907
       Atomic Center   33 is at  -3.597189 -1.418865  1.333200
       Atomic Center   34 is at  -3.575113 -1.426258 -1.372765
       Atomic Center   35 is at  -3.762489  0.126167 -2.177393
       Atomic Center   36 is at   0.261635 -2.465692  1.289631
       Atomic Center   37 is at   0.561989 -0.968831  2.155643
       Atomic Center   38 is at   0.607496 -0.884715 -2.140991
       Atomic Center   39 is at   0.326005 -2.423267 -1.338140
       Atomic Center   40 is at  -1.576939  0.906291  1.257383
       Atomic Center   41 is at  -1.395267 -0.651937  2.100685
       Atomic Center   42 is at  -1.360744 -0.664032 -2.107800
       Atomic Center   43 is at  -1.555836  0.899343 -1.276674
       Atomic Center   44 is at  -1.506226 -1.753037 -0.001623
    1442 points will be used for fitting atomic charges
 Fitting point charges to electrostatic potential
 Charges from ESP fit, RMS=   0.00129 RRMS=   0.01228:
 ESP charges:
               1
     1  C   -0.165287
     2  C   -0.121612
     3  C   -0.119903
     4  C   -0.342141
     5  C   -0.329742
     6  C    0.486716
     7  C   -0.048473
     8  C   -0.035620
     9  C   -0.037956
    10  C   -0.057075
    11  C   -0.072017
    12  C   -0.055437
    13  C   -0.206174
    14  C   -0.224381
    15  C    0.004274
    16  C    0.022163
    17  C   -0.035345
    18  N   -0.302295
    19  H    0.165086
    20  H    0.163463
    21  H    0.159982
    22  H    0.195436
    23  H    0.192074
    24  H    0.033262
    25  H    0.038869
    26  H    0.050357
    27  H    0.032947
    28  H    0.033768
    29  H    0.050855
    30  H    0.047178
    31  H    0.041376
    32  H    0.067258
    33  H    0.055992
    34  H    0.051936
    35  H    0.061996
    36  H    0.125953
    37  H    0.091081
    38  H    0.100338
    39  H    0.129970
    40  H    0.109786
    41  H    0.079194
    42  H    0.070457
    43  H    0.098748
    44  H    0.392944
 Sum of ESP charges =   1.00000
 ESP charges with hydrogens summed into heavy atoms:
               1
     1  C   -0.000201
     2  C    0.041851
     3  C    0.040079
     4  C   -0.146706
     5  C   -0.137668
     6  C    0.486716
     7  C    0.023657
     8  C    0.047684
     9  C    0.046667
    10  C    0.031479
    11  C    0.051233
    12  C    0.058495
    13  C    0.010860
    14  C    0.005927
    15  C    0.193253
    16  C    0.191368
    17  C   -0.035345
    18  N    0.090650
 Charge=   1.00000 Dipole=    -4.6509    -2.3155    -0.0187 Tot=     5.1954
 Writing Antechamber ESP formatted file "G6.esp"
 -----------------------------------------------------------------

              Electrostatic Properties (Atomic Units)

 -----------------------------------------------------------------
    Center     Electric         -------- Electric Field --------
               Potential          X             Y             Z
 -----------------------------------------------------------------
    1 Atom    -14.618492
    2 Atom    -14.613171
    3 Atom    -14.613737
    4 Atom    -14.595666
    5 Atom    -14.596137
    6 Atom    -14.576518
    7 Atom    -14.628054
    8 Atom    -14.614470
    9 Atom    -14.615074
   10 Atom    -14.595449
   11 Atom    -14.579448
   12 Atom    -14.579588
   13 Atom    -14.579972
   14 Atom    -14.581626
   15 Atom    -14.522311
   16 Atom    -14.522467
   17 Atom    -14.493552
   18 Atom    -18.060715
   19 Atom     -1.009665
   20 Atom     -1.001363
   21 Atom     -1.002865
   22 Atom     -0.969568
   23 Atom     -0.969279
   24 Atom     -1.041064
   25 Atom     -1.028372
   26 Atom     -1.021353
   27 Atom     -1.026182
   28 Atom     -1.025253
   29 Atom     -1.021570
   30 Atom     -1.008560
   31 Atom     -1.002984
   32 Atom     -0.987104
   33 Atom     -0.978557
   34 Atom     -0.978632
   35 Atom     -0.987294
   36 Atom     -0.967193
   37 Atom     -0.981394
   38 Atom     -0.981496
   39 Atom     -0.968727
   40 Atom     -0.951656
   41 Atom     -0.943241
   42 Atom     -0.943711
   43 Atom     -0.951974
   44 Atom     -0.810034
 -----------------------------------------------------------------

 Test job not archived.
 1\1\GINC-CPU197\SP\RHF\6-31G(d,p)\C17H26N1(1+)\FEBRERMA\05-Feb-2024\0\
 \# HF/6-31G** SCRF=(Solvent=Water) POP=MK iop(6/50=1) geom=allcheck gu
 ess=read\\G6\\1,1\C,0,-4.2336182179,-6.5775697422,-2.9060778885\C,0,-4
 .2151239469,-5.4211695572,-3.6871541226\C,0,-3.1929281149,-6.831786450
 4,-2.0092996011\C,0,-3.1544682497,-4.51863981,-3.5705302331\C,0,-2.128
 9424243,-5.9367476861,-1.8853224193\C,0,-2.1103851832,-4.7733284425,-2
 .67110458\C,0,1.3176923299,-4.5561191721,-4.3858675096\C,0,0.077937705
 5,-3.8346470263,-4.9162863195\C,0,1.01770958,-5.3420958453,-3.10953626
 65\C,0,-2.9608940667,-1.2823084587,0.5812566354\C,0,-2.7951302106,-0.7
 220295433,-0.840519327\C,0,-1.7644746677,-2.1630701117,0.9756189\C,0,-
 0.5928481003,-2.9769304829,-3.8287948556\C,0,0.3747969068,-4.438897733
 5,-2.0424350013\C,0,-2.5393284881,-1.8394427282,-1.8556120781\C,0,-1.5
 180748142,-3.2666579914,-0.0567365554\C,0,-0.9413016642,-3.776799754,-
 2.5441096265\N,0,-1.3362959942,-2.6523214287,-1.4279886144\H,0,-5.0571
 246905,-7.2787293755,-2.994555797\H,0,-5.0236410474,-5.2222848019,-4.3
 832250407\H,0,-3.2121512303,-7.7321073441,-1.4031034933\H,0,-3.1476677
 563,-3.6239529746,-4.1801953855\H,0,-1.3304070059,-6.1457371488,-1.187
 6705376\H,0,1.6959806433,-5.2400581626,-5.1526869594\H,0,2.115091896,-
 3.8261007815,-4.1916006355\H,0,0.3515568014,-3.208626479,-5.770895829\
 H,0,-0.6409055564,-4.5729710365,-5.290932857\H,0,0.3408755973,-6.17191
 7094,-3.3419966474\H,0,1.9409525233,-5.7828887753,-2.7217231526\H,0,-3
 .0660576868,-0.4596773375,1.2939106157\H,0,-3.8835217924,-1.8739207921
 ,0.6354510091\H,0,-3.6946696396,-0.1675607298,-1.1237498215\H,0,-1.963
 4035568,-0.0048336945,-0.8614820078\H,0,-0.8641908331,-1.5417314306,1.
 0756456762\H,0,-1.9463990067,-2.611962734,1.9565482605\H,0,0.057242328
 3,-2.1264429209,-3.5825177246\H,0,-1.5094490328,-2.5565699637,-4.24678
 41397\H,0,0.1553802632,-5.0498150587,-1.1674522465\H,0,1.0936222784,-3
 .6715650804,-1.7251985414\H,0,-3.3870560251,-2.5201304618,-1.929192680
 2\H,0,-2.3169345487,-1.4214781924,-2.8347544204\H,0,-0.6067976688,-3.8
 116000627,0.1777911397\H,0,-2.357532685,-3.9596681078,-0.1154256479\H,
 0,-0.5450149479,-2.0052074947,-1.3637036731\\Version=ES64L-G16RevA.03\
 State=1-A\HF=-713.2646008\RMSD=3.875e-09\Dipole=0.2829688,1.6652868,1.
 1546233\Quadrupole=-1.5457006,2.7535283,-1.2078277,2.024534,1.7732299,
 2.0551654\PG=C01 [X(C17H26N1)]\\@


 THE MOST INCOMPREHENSIBLE THING ABOUT THE WORLD
 IS THAT IT IS COMPREHENSIBLE. -- A. EINSTEIN
 Job cpu time:       0 days  0 hours  9 minutes 22.7 seconds.
 Elapsed time:       0 days  0 hours  1 minutes 12.0 seconds.
 File lengths (MBytes):  RWF=    199 Int=      0 D2E=      0 Chk=     15 Scr=      1
 Normal termination of Gaussian 16 at Mon Feb  5 16:02:20 2024.
