 Entering Gaussian System, Link 0=g16
 Initial command:
 /opt/ebsofts/Gaussian/g16/l1.exe "/scratch/Gau-4109915.inp" -scrdir="/scratch/"
 Entering Link 1 = /opt/ebsofts/Gaussian/g16/l1.exe PID=   4109921.
  
 Copyright (c) 1988,1990,1992,1993,1995,1998,2003,2009,2016,
            Gaussian, Inc.  All Rights Reserved.
  
 This is part of the Gaussian(R) 16 program.  It is based on
 the Gaussian(R) 09 system (copyright 2009, Gaussian, Inc.),
 the Gaussian(R) 03 system (copyright 2003, Gaussian, Inc.),
 the Gaussian(R) 98 system (copyright 1998, Gaussian, Inc.),
 the Gaussian(R) 94 system (copyright 1995, Gaussian, Inc.),
 the Gaussian 92(TM) system (copyright 1992, Gaussian, Inc.),
 the Gaussian 90(TM) system (copyright 1990, Gaussian, Inc.),
 the Gaussian 88(TM) system (copyright 1988, Gaussian, Inc.),
 the Gaussian 86(TM) system (copyright 1986, Carnegie Mellon
 University), and the Gaussian 82(TM) system (copyright 1983,
 Carnegie Mellon University). Gaussian is a federally registered
 trademark of Gaussian, Inc.
  
 This software contains proprietary and confidential information,
 including trade secrets, belonging to Gaussian, Inc.
  
 This software is provided under written license and may be
 used, copied, transmitted, or stored only in accord with that
 written license.
  
 The following legend is applicable only to US Government
 contracts under FAR:
  
                    RESTRICTED RIGHTS LEGEND
  
 Use, reproduction and disclosure by the US Government is
 subject to restrictions as set forth in subparagraphs (a)
 and (c) of the Commercial Computer Software - Restricted
 Rights clause in FAR 52.227-19.
  
 Gaussian, Inc.
 340 Quinnipiac St., Bldg. 40, Wallingford CT 06492
  
  
 ---------------------------------------------------------------
 Warning -- This program may not be used in any manner that
 competes with the business of Gaussian, Inc. or will provide
 assistance to any competitor of Gaussian, Inc.  The licensee
 of this program is prohibited from giving any competitor of
 Gaussian, Inc. access to this program.  By using this program,
 the user acknowledges that Gaussian, Inc. is engaged in the
 business of creating and licensing software in the field of
 computational chemistry and represents and warrants to the
 licensee that it is not a competitor of Gaussian, Inc. and that
 it will not use this program in any manner prohibited above.
 ---------------------------------------------------------------
  

 Cite this work as:
 Gaussian 16, Revision A.03,
 M. J. Frisch, G. W. Trucks, H. B. Schlegel, G. E. Scuseria, 
 M. A. Robb, J. R. Cheeseman, G. Scalmani, V. Barone, 
 G. A. Petersson, H. Nakatsuji, X. Li, M. Caricato, A. V. Marenich, 
 J. Bloino, B. G. Janesko, R. Gomperts, B. Mennucci, H. P. Hratchian, 
 J. V. Ortiz, A. F. Izmaylov, J. L. Sonnenberg, D. Williams-Young, 
 F. Ding, F. Lipparini, F. Egidi, J. Goings, B. Peng, A. Petrone, 
 T. Henderson, D. Ranasinghe, V. G. Zakrzewski, J. Gao, N. Rega, 
 G. Zheng, W. Liang, M. Hada, M. Ehara, K. Toyota, R. Fukuda, 
 J. Hasegawa, M. Ishida, T. Nakajima, Y. Honda, O. Kitao, H. Nakai, 
 T. Vreven, K. Throssell, J. A. Montgomery, Jr., J. E. Peralta, 
 F. Ogliaro, M. J. Bearpark, J. J. Heyd, E. N. Brothers, K. N. Kudin, 
 V. N. Staroverov, T. A. Keith, R. Kobayashi, J. Normand, 
 K. Raghavachari, A. P. Rendell, J. C. Burant, S. S. Iyengar, 
 J. Tomasi, M. Cossi, J. M. Millam, M. Klene, C. Adamo, R. Cammi, 
 J. W. Ochterski, R. L. Martin, K. Morokuma, O. Farkas, 
 J. B. Foresman, and D. J. Fox, Gaussian, Inc., Wallingford CT, 2016.
 
 ******************************************
 Gaussian 16:  ES64L-G16RevA.03 25-Dec-2016
                 5-Feb-2024 
 ******************************************
 %Chk=G5.chk
 %nprocshared=8
 Will use up to    8 processors via shared memory.
 %mem=1GB
 --------------------------------
 # B3LYP/6-31G** opt=Modredundant
 --------------------------------
 1/18=120,19=15,26=3,38=1/1,3;
 2/9=110,12=2,17=6,18=5,40=1/2;
 3/5=1,6=6,7=101,11=2,25=1,30=1,71=1,74=-5/1,2,3;
 4//1;
 5/5=2,38=5/2;
 6/7=2,8=2,9=2,10=2,28=1/1;
 7//1,2,3,16;
 1/18=20,19=15,26=3/3(2);
 2/9=110/2;
 99//99;
 2/9=110/2;
 3/5=1,6=6,7=101,11=2,25=1,30=1,71=1,74=-5/1,2,3;
 4/5=5,16=3,69=1/1;
 5/5=2,38=5/2;
 7//1,2,3,16;
 1/18=20,19=15,26=3/3(-5);
 2/9=110/2;
 6/7=2,8=2,9=2,10=2,19=2,28=1/1;
 99/9=1/99;
 --
 G5
 --
 Symbolic Z-matrix:
 Charge =  1 Multiplicity = 1
 C                     7.6218    38.9882   29.9392 
 C                     8.5485    40.11     30.4367 
 C                     8.9975    37.2756   31.0871 
 C                     8.5989    37.8166   29.6912 
 C                     9.9707    38.3528   31.5941 
 C                     9.9433    39.4233   30.4621 
 C                     9.8866    38.522    29.1843 
 C                     11.0865   40.419    30.5391 
 C                     11.0848   37.5715   28.9814 
 C                     9.7096    39.2671   27.8451 
 N                     9.5506    38.8685   32.9136 
 H                     6.8507    38.7417   30.6767 
 H                     7.1101    39.2862   29.018 
 H                     8.5273    40.9604   29.7457 
 H                     8.2316    40.5027   31.4067 
 H                     8.1286    37.1229   31.7366 
 H                     9.5087    36.311    30.9959 
 H                     8.1902    37.0466   29.0327 
 H                     10.9747   37.9439   31.7486 
 H                     12.0444   39.895    30.5547 
 H                     11.0032   41.0213   31.4461 
 H                     11.0669   41.0853   29.6742 
 H                     11.9346   38.1441   28.629 
 H                     10.8185   36.8184   28.2493 
 H                     11.325    37.0987   29.9264 
 H                     10.6513   39.7265   27.5688 
 H                     8.9481    40.029    27.9623 
 H                     9.4077    38.5581   27.0832 
 H                     8.8028    38.2914   33.3185 
 H                     9.1965    39.8308   32.8417 
 H                     10.3343   38.8739   33.5785 
 
 The following ModRedundant input section has been read:
 D    *       *       *       *    F                                           
 

 GradGradGradGradGradGradGradGradGradGradGradGradGradGradGradGradGradGrad
 Berny optimization.
 Initialization pass.
                           ----------------------------
                           !    Initial Parameters    !
                           ! (Angstroms and Degrees)  !
 --------------------------                            --------------------------
 ! Name  Definition              Value          Derivative Info.                !
 --------------------------------------------------------------------------------
 ! R1    R(1,2)                  1.5378         estimate D2E/DX2                !
 ! R2    R(1,4)                  1.5456         estimate D2E/DX2                !
 ! R3    R(1,12)                 1.0951         estimate D2E/DX2                !
 ! R4    R(1,13)                 1.0951         estimate D2E/DX2                !
 ! R5    R(2,6)                  1.5549         estimate D2E/DX2                !
 ! R6    R(2,14)                 1.096          estimate D2E/DX2                !
 ! R7    R(2,15)                 1.0934         estimate D2E/DX2                !
 ! R8    R(3,4)                  1.5492         estimate D2E/DX2                !
 ! R9    R(3,5)                  1.5377         estimate D2E/DX2                !
 ! R10   R(3,16)                 1.0955         estimate D2E/DX2                !
 ! R11   R(3,17)                 1.0955         estimate D2E/DX2                !
 ! R12   R(4,7)                  1.5533         estimate D2E/DX2                !
 ! R13   R(4,18)                 1.0925         estimate D2E/DX2                !
 ! R14   R(5,6)                  1.5583         estimate D2E/DX2                !
 ! R15   R(5,11)                 1.4777         estimate D2E/DX2                !
 ! R16   R(5,19)                 1.095          estimate D2E/DX2                !
 ! R17   R(6,7)                  1.5647         estimate D2E/DX2                !
 ! R18   R(6,8)                  1.518          estimate D2E/DX2                !
 ! R19   R(7,9)                  1.5428         estimate D2E/DX2                !
 ! R20   R(7,10)                 1.5427         estimate D2E/DX2                !
 ! R21   R(8,20)                 1.092          estimate D2E/DX2                !
 ! R22   R(8,21)                 1.0919         estimate D2E/DX2                !
 ! R23   R(8,22)                 1.092          estimate D2E/DX2                !
 ! R24   R(9,23)                 1.0836         estimate D2E/DX2                !
 ! R25   R(9,24)                 1.0835         estimate D2E/DX2                !
 ! R26   R(9,25)                 1.0836         estimate D2E/DX2                !
 ! R27   R(10,26)                1.0836         estimate D2E/DX2                !
 ! R28   R(10,27)                1.0836         estimate D2E/DX2                !
 ! R29   R(10,28)                1.0837         estimate D2E/DX2                !
 ! R30   R(11,29)                1.0277         estimate D2E/DX2                !
 ! R31   R(11,30)                1.0279         estimate D2E/DX2                !
 ! R32   R(11,31)                1.0278         estimate D2E/DX2                !
 ! A1    A(2,1,4)              102.9393         estimate D2E/DX2                !
 ! A2    A(2,1,12)             111.7562         estimate D2E/DX2                !
 ! A3    A(2,1,13)             110.807          estimate D2E/DX2                !
 ! A4    A(4,1,12)             112.493          estimate D2E/DX2                !
 ! A5    A(4,1,13)             111.5119         estimate D2E/DX2                !
 ! A6    A(12,1,13)            107.3822         estimate D2E/DX2                !
 ! A7    A(1,2,6)              102.926          estimate D2E/DX2                !
 ! A8    A(1,2,14)             110.5126         estimate D2E/DX2                !
 ! A9    A(1,2,15)             111.9843         estimate D2E/DX2                !
 ! A10   A(6,2,14)             111.7366         estimate D2E/DX2                !
 ! A11   A(6,2,15)             113.8356         estimate D2E/DX2                !
 ! A12   A(14,2,15)            105.9651         estimate D2E/DX2                !
 ! A13   A(4,3,5)              102.4326         estimate D2E/DX2                !
 ! A14   A(4,3,16)             112.2596         estimate D2E/DX2                !
 ! A15   A(4,3,17)             110.6424         estimate D2E/DX2                !
 ! A16   A(5,3,16)             113.8372         estimate D2E/DX2                !
 ! A17   A(5,3,17)             110.4226         estimate D2E/DX2                !
 ! A18   A(16,3,17)            107.2616         estimate D2E/DX2                !
 ! A19   A(1,4,3)              106.4266         estimate D2E/DX2                !
 ! A20   A(1,4,7)              103.4272         estimate D2E/DX2                !
 ! A21   A(1,4,18)             113.2333         estimate D2E/DX2                !
 ! A22   A(3,4,7)              103.8471         estimate D2E/DX2                !
 ! A23   A(3,4,18)             113.155          estimate D2E/DX2                !
 ! A24   A(7,4,18)             115.6902         estimate D2E/DX2                !
 ! A25   A(3,5,6)              103.3325         estimate D2E/DX2                !
 ! A26   A(3,5,11)             111.037          estimate D2E/DX2                !
 ! A27   A(3,5,19)             111.4209         estimate D2E/DX2                !
 ! A28   A(6,5,11)             113.8246         estimate D2E/DX2                !
 ! A29   A(6,5,19)             112.0335         estimate D2E/DX2                !
 ! A30   A(11,5,19)            105.3667         estimate D2E/DX2                !
 ! A31   A(2,6,5)              109.332          estimate D2E/DX2                !
 ! A32   A(2,6,7)              102.0372         estimate D2E/DX2                !
 ! A33   A(2,6,8)              112.7501         estimate D2E/DX2                !
 ! A34   A(5,6,7)              101.4298         estimate D2E/DX2                !
 ! A35   A(5,6,8)              113.6112         estimate D2E/DX2                !
 ! A36   A(7,6,8)              116.5223         estimate D2E/DX2                !
 ! A37   A(4,7,6)               91.4399         estimate D2E/DX2                !
 ! A38   A(4,7,9)              114.0148         estimate D2E/DX2                !
 ! A39   A(4,7,10)             114.0486         estimate D2E/DX2                !
 ! A40   A(6,7,9)              115.7297         estimate D2E/DX2                !
 ! A41   A(6,7,10)             115.7761         estimate D2E/DX2                !
 ! A42   A(9,7,10)             105.8129         estimate D2E/DX2                !
 ! A43   A(6,8,20)             110.2799         estimate D2E/DX2                !
 ! A44   A(6,8,21)             110.2727         estimate D2E/DX2                !
 ! A45   A(6,8,22)             110.2762         estimate D2E/DX2                !
 ! A46   A(20,8,21)            108.6472         estimate D2E/DX2                !
 ! A47   A(20,8,22)            108.6549         estimate D2E/DX2                !
 ! A48   A(21,8,22)            108.6608         estimate D2E/DX2                !
 ! A49   A(7,9,23)             109.0429         estimate D2E/DX2                !
 ! A50   A(7,9,24)             109.0373         estimate D2E/DX2                !
 ! A51   A(7,9,25)             109.0421         estimate D2E/DX2                !
 ! A52   A(23,9,24)            109.894          estimate D2E/DX2                !
 ! A53   A(23,9,25)            109.8966         estimate D2E/DX2                !
 ! A54   A(24,9,25)            109.9041         estimate D2E/DX2                !
 ! A55   A(7,10,26)            109.0505         estimate D2E/DX2                !
 ! A56   A(7,10,27)            109.047          estimate D2E/DX2                !
 ! A57   A(7,10,28)            109.0442         estimate D2E/DX2                !
 ! A58   A(26,10,27)           109.8904         estimate D2E/DX2                !
 ! A59   A(26,10,28)           109.8901         estimate D2E/DX2                !
 ! A60   A(27,10,28)           109.8951         estimate D2E/DX2                !
 ! A61   A(5,11,29)            111.2662         estimate D2E/DX2                !
 ! A62   A(5,11,30)            111.2354         estimate D2E/DX2                !
 ! A63   A(5,11,31)            111.2682         estimate D2E/DX2                !
 ! A64   A(29,11,30)           107.6136         estimate D2E/DX2                !
 ! A65   A(29,11,31)           107.6326         estimate D2E/DX2                !
 ! A66   A(30,11,31)           107.6387         estimate D2E/DX2                !
 ! D1    D(4,1,2,6)             -1.9931         Frozen                          !
 ! D2    D(4,1,2,14)           117.45           Frozen                          !
 ! D3    D(4,1,2,15)          -124.6622         Frozen                          !
 ! D4    D(12,1,2,6)           118.9599         Frozen                          !
 ! D5    D(12,1,2,14)         -121.5971         Frozen                          !
 ! D6    D(12,1,2,15)           -3.7093         Frozen                          !
 ! D7    D(13,1,2,6)          -121.3209         Frozen                          !
 ! D8    D(13,1,2,14)           -1.8778         Frozen                          !
 ! D9    D(13,1,2,15)          116.01           Frozen                          !
 ! D10   D(2,1,4,3)             74.1622         Frozen                          !
 ! D11   D(2,1,4,7)            -34.9193         Frozen                          !
 ! D12   D(2,1,4,18)          -160.8995         Frozen                          !
 ! D13   D(12,1,4,3)           -46.2863         Frozen                          !
 ! D14   D(12,1,4,7)          -155.3677         Frozen                          !
 ! D15   D(12,1,4,18)           78.6521         Frozen                          !
 ! D16   D(13,1,4,3)          -167.0006         Frozen                          !
 ! D17   D(13,1,4,7)            83.9179         Frozen                          !
 ! D18   D(13,1,4,18)          -42.0623         Frozen                          !
 ! D19   D(1,2,6,5)            -69.0002         Frozen                          !
 ! D20   D(1,2,6,7)             37.83           Frozen                          !
 ! D21   D(1,2,6,8)            163.5993         Frozen                          !
 ! D22   D(14,2,6,5)           172.4092         Frozen                          !
 ! D23   D(14,2,6,7)           -80.7605         Frozen                          !
 ! D24   D(14,2,6,8)            45.0087         Frozen                          !
 ! D25   D(15,2,6,5)            52.4189         Frozen                          !
 ! D26   D(15,2,6,7)           159.2492         Frozen                          !
 ! D27   D(15,2,6,8)           -74.9816         Frozen                          !
 ! D28   D(5,3,4,1)            -74.8566         Frozen                          !
 ! D29   D(5,3,4,7)             33.9278         Frozen                          !
 ! D30   D(5,3,4,18)           160.1571         Frozen                          !
 ! D31   D(16,3,4,1)            47.6505         Frozen                          !
 ! D32   D(16,3,4,7)           156.435          Frozen                          !
 ! D33   D(16,3,4,18)          -77.3358         Frozen                          !
 ! D34   D(17,3,4,1)           167.4405         Frozen                          !
 ! D35   D(17,3,4,7)           -83.7751         Frozen                          !
 ! D36   D(17,3,4,18)           42.4542         Frozen                          !
 ! D37   D(4,3,5,6)              3.3251         Frozen                          !
 ! D38   D(4,3,5,11)           125.7314         Frozen                          !
 ! D39   D(4,3,5,19)          -117.1473         Frozen                          !
 ! D40   D(16,3,5,6)          -118.1066         Frozen                          !
 ! D41   D(16,3,5,11)            4.2997         Frozen                          !
 ! D42   D(16,3,5,19)          121.421          Frozen                          !
 ! D43   D(17,3,5,6)           121.1843         Frozen                          !
 ! D44   D(17,3,5,11)         -116.4094         Frozen                          !
 ! D45   D(17,3,5,19)            0.7119         Frozen                          !
 ! D46   D(1,4,7,6)             55.5111         Frozen                          !
 ! D47   D(1,4,7,9)            174.6294         Frozen                          !
 ! D48   D(1,4,7,10)           -63.669          Frozen                          !
 ! D49   D(3,4,7,6)            -55.4836         Frozen                          !
 ! D50   D(3,4,7,9)             63.6346         Frozen                          !
 ! D51   D(3,4,7,10)          -174.6638         Frozen                          !
 ! D52   D(18,4,7,6)           179.906          Frozen                          !
 ! D53   D(18,4,7,9)           -60.9757         Frozen                          !
 ! D54   D(18,4,7,10)           60.7259         Frozen                          !
 ! D55   D(3,5,6,2)             68.2609         Frozen                          !
 ! D56   D(3,5,6,7)            -38.9811         Frozen                          !
 ! D57   D(3,5,6,8)           -164.8252         Frozen                          !
 ! D58   D(11,5,6,2)           -52.2648         Frozen                          !
 ! D59   D(11,5,6,7)          -159.5068         Frozen                          !
 ! D60   D(11,5,6,8)            74.6491         Frozen                          !
 ! D61   D(19,5,6,2)          -171.685          Frozen                          !
 ! D62   D(19,5,6,7)            81.073          Frozen                          !
 ! D63   D(19,5,6,8)           -44.7711         Frozen                          !
 ! D64   D(3,5,11,29)           10.8708         Frozen                          !
 ! D65   D(3,5,11,30)         -109.1028         Frozen                          !
 ! D66   D(3,5,11,31)          130.8905         Frozen                          !
 ! D67   D(6,5,11,29)          126.9691         Frozen                          !
 ! D68   D(6,5,11,30)            6.9956         Frozen                          !
 ! D69   D(6,5,11,31)         -113.0112         Frozen                          !
 ! D70   D(19,5,11,29)        -109.8933         Frozen                          !
 ! D71   D(19,5,11,30)         130.1332         Frozen                          !
 ! D72   D(19,5,11,31)          10.1265         Frozen                          !
 ! D73   D(2,6,7,4)            -56.2622         Frozen                          !
 ! D74   D(2,6,7,9)           -173.9091         Frozen                          !
 ! D75   D(2,6,7,10)            61.4364         Frozen                          !
 ! D76   D(5,6,7,4)             56.5955         Frozen                          !
 ! D77   D(5,6,7,9)            -61.0514         Frozen                          !
 ! D78   D(5,6,7,10)           174.2941         Frozen                          !
 ! D79   D(8,6,7,4)           -179.5148         Frozen                          !
 ! D80   D(8,6,7,9)             62.8383         Frozen                          !
 ! D81   D(8,6,7,10)           -61.8162         Frozen                          !
 ! D82   D(2,6,8,20)           179.9974         Frozen                          !
 ! D83   D(2,6,8,21)            60.0062         Frozen                          !
 ! D84   D(2,6,8,22)           -59.9995         Frozen                          !
 ! D85   D(5,6,8,20)            54.8931         Frozen                          !
 ! D86   D(5,6,8,21)           -65.0982         Frozen                          !
 ! D87   D(5,6,8,22)           174.8962         Frozen                          !
 ! D88   D(7,6,8,20)           -62.4853         Frozen                          !
 ! D89   D(7,6,8,21)           177.5235         Frozen                          !
 ! D90   D(7,6,8,22)            57.5178         Frozen                          !
 ! D91   D(4,7,9,23)          -179.9982         Frozen                          !
 ! D92   D(4,7,9,24)            60.0077         Frozen                          !
 ! D93   D(4,7,9,25)           -59.9982         Frozen                          !
 ! D94   D(6,7,9,23)           -75.8019         Frozen                          !
 ! D95   D(6,7,9,24)           164.204          Frozen                          !
 ! D96   D(6,7,9,25)            44.1981         Frozen                          !
 ! D97   D(10,7,9,23)           53.8547         Frozen                          !
 ! D98   D(10,7,9,24)          -66.1393         Frozen                          !
 ! D99   D(10,7,9,25)          173.8548         Frozen                          !
 ! D100  D(4,7,10,26)         -179.9982         Frozen                          !
 ! D101  D(4,7,10,27)           60.0018         Frozen                          !
 ! D102  D(4,7,10,28)          -60.0002         Frozen                          !
 ! D103  D(6,7,10,26)           75.7579         Frozen                          !
 ! D104  D(6,7,10,27)          -44.2422         Frozen                          !
 ! D105  D(6,7,10,28)         -164.2441         Frozen                          !
 ! D106  D(9,7,10,26)          -53.8718         Frozen                          !
 ! D107  D(9,7,10,27)         -173.8718         Frozen                          !
 ! D108  D(9,7,10,28)           66.1262         Frozen                          !
 --------------------------------------------------------------------------------
 Trust Radius=3.00D-01 FncErr=1.00D-07 GrdErr=1.00D-06 EigMax=2.50D+02 EigMin=1.00D-04
 Number of steps in this run=    186 maximum allowed number of steps=    186.
 GradGradGradGradGradGradGradGradGradGradGradGradGradGradGradGradGradGrad

                          Input orientation:                          
 ---------------------------------------------------------------------
 Center     Atomic      Atomic             Coordinates (Angstroms)
 Number     Number       Type             X           Y           Z
 ---------------------------------------------------------------------
      1          6           0        7.621800   38.988201   29.939199
      2          6           0        8.548500   40.110001   30.436701
      3          6           0        8.997500   37.275600   31.087099
      4          6           0        8.598900   37.816601   29.691200
      5          6           0        9.970700   38.352798   31.594101
      6          6           0        9.943300   39.423302   30.462099
      7          6           0        9.886600   38.521999   29.184299
      8          6           0       11.086500   40.418999   30.539101
      9          6           0       11.084800   37.571499   28.981400
     10          6           0        9.709600   39.267101   27.845100
     11          7           0        9.550600   38.868500   32.913601
     12          1           0        6.850700   38.741699   30.676701
     13          1           0        7.110100   39.286201   29.018000
     14          1           0        8.527300   40.960400   29.745701
     15          1           0        8.231600   40.502701   31.406700
     16          1           0        8.128600   37.122898   31.736601
     17          1           0        9.508700   36.311001   30.995899
     18          1           0        8.190200   37.046600   29.032700
     19          1           0       10.974700   37.943901   31.748600
     20          1           0       12.044400   39.895000   30.554701
     21          1           0       11.003200   41.021301   31.446100
     22          1           0       11.066900   41.085300   29.674200
     23          1           0       11.934600   38.144100   28.629000
     24          1           0       10.818500   36.818401   28.249300
     25          1           0       11.325000   37.098701   29.926399
     26          1           0       10.651300   39.726501   27.568800
     27          1           0        8.948100   40.028999   27.962299
     28          1           0        9.407700   38.558102   27.083200
     29          1           0        8.802800   38.291401   33.318501
     30          1           0        9.196500   39.830799   32.841702
     31          1           0       10.334300   38.873901   33.578499
 ---------------------------------------------------------------------
                    Distance matrix (angstroms):
                    1          2          3          4          5
     1  C    0.000000
     2  C    1.537763   0.000000
     3  C    2.478553   2.942524   0.000000
     4  C    1.545598   2.412052   1.549225   0.000000
     5  C    2.942749   2.539683   1.537701   2.406320   0.000000
     6  C    2.419111   1.554885   2.428536   2.232305   1.558255
     7  C    2.432393   2.425030   2.442265   1.553289   2.417198
     8  C    3.796210   2.558791   3.813814   3.698590   2.574339
     9  C    3.862226   3.872300   2.979655   2.596842   2.945820
    10  C    2.970176   2.962268   3.870881   2.597247   3.867704
    11  N    3.547064   2.946279   2.485832   3.520809   1.477671
    12  H    1.095111   2.193713   2.631848   2.209801   3.275251
    13  H    1.095102   2.181823   3.447603   2.197600   3.961132
    14  H    2.178747   1.095951   3.949454   3.145086   3.507075
    15  H    2.195251   1.093406   3.332106   3.208268   2.771583
    16  H    2.639480   3.284637   1.095517   2.210446   2.219525
    17  H    3.441570   3.958167   1.095488   2.190161   2.177206
    18  H    2.216897   3.388809   2.219173   1.092501   3.381879
    19  H    3.950498   3.507066   2.189413   3.145398   1.095026
    20  H    4.556371   3.504492   4.053184   4.115440   2.785493
    21  H    4.223519   2.806226   4.264034   4.373835   2.865112
    22  H    4.041876   2.806235   4.559881   4.095816   3.514860
    23  H    4.585779   4.312566   3.927225   3.516023   3.562623
    24  H    4.216952   4.557659   3.402672   2.828799   3.776352
    25  H    4.157411   4.127625   2.606871   2.828837   2.487593
    26  H    3.916854   3.576828   4.595693   3.516340   4.307357
    27  H    2.598166   2.507769   4.165096   2.829442   4.128601
    28  H    3.395755   3.793756   4.224249   2.829425   4.550533
    29  H    3.646913   3.417125   2.459454   3.663922   2.083582
    30  H    3.407958   2.506369   3.106006   3.786790   2.083358
    31  H    4.540399   3.819414   3.247872   4.386410   2.083648
                    6          7          8          9         10
     6  C    0.000000
     7  C    1.564716   0.000000
     8  C    1.517975   2.621804   0.000000
     9  C    2.631476   1.542823   3.245719   0.000000
    10  C    2.632052   1.542712   3.237339   2.461182   0.000000
    11  N    2.543989   3.760406   3.225103   4.415675   5.086636
    12  H    3.174084   3.390018   4.557880   4.708611   4.057995
    13  H    3.182961   2.884547   4.405535   4.328947   2.851922
    14  H    2.209288   2.847572   2.733515   4.313886   2.806667
    15  H    2.233224   3.406064   2.984994   4.755500   4.049220
    16  H    3.195207   3.400337   4.587751   4.065894   4.716031
    17  H    3.187513   2.883265   4.424225   2.851518   4.325092
    18  H    3.281045   2.253344   4.693706   2.942254   2.941019
    19  H    2.215287   2.844960   2.757081   2.794316   4.311455
    20  H    2.155388   2.901592   1.091966   2.965597   3.631458
    21  H    2.155283   3.550922   1.091950   4.240582   4.209254
    22  H    2.155342   2.864197   1.091968   3.581493   2.914398
    23  H    2.993641   2.155335   3.089162   1.083613   2.612710
    24  H    3.528167   2.155205   4.275432   1.083533   2.718303
    25  H    2.756781   2.155339   3.384770   1.083631   3.412225
    26  H    2.994056   2.155326   3.080851   2.612928   1.083600
    27  H    2.757951   2.155253   3.371166   3.412237   1.083562
    28  H    3.528795   2.155288   4.269023   2.718311   1.083658
    29  H    3.277342   4.280120   4.179357   4.953406   5.633151
    30  H    2.527108   3.945351   3.036454   4.855105   5.054410
    31  H    3.188522   4.430944   3.491572   4.836612   5.780720
                   11         12         13         14         15
    11  N    0.000000
    12  H    3.508456   0.000000
    13  H    4.615866   1.764953   0.000000
    14  H    3.931765   2.932641   2.311049   0.000000
    15  H    2.584787   2.353914   2.905774   1.748097   0.000000
    16  H    2.540579   2.318821   3.620499   4.341551   3.397427
    17  H    3.196895   3.615957   4.303159   4.913558   4.401147
    18  H    4.497933   2.714841   2.486492   3.992473   4.193116
    19  H    2.059168   4.335069   4.918646   4.370428   3.766822
    20  H    3.582897   5.321608   5.203787   3.762918   3.953814
    21  H    2.982978   4.799147   4.905351   3.004188   2.819976
    22  H    4.207979   4.926846   4.395864   2.543675   3.373411
    23  H    4.956412   5.513279   4.973079   4.559414   5.195269
    24  H    5.250350   5.033367   4.520306   4.964370   5.498663
    25  H    3.899238   4.825117   4.834845   4.772054   4.831939
    26  H    5.524003   5.007339   3.851512   3.282191   4.602924
    27  H    5.121050   3.663906   2.245996   2.055506   3.549882
    28  H    5.840406   4.414205   3.090719   3.692567   4.884396
    29  H    1.027712   3.315504   4.727491   4.468149   2.978439
    30  H    1.027899   3.372854   4.389801   3.362893   1.855186
    31  H    1.027767   4.535789   5.600322   4.723248   3.433809
                   16         17         18         19         20
    16  H    0.000000
    17  H    1.764226   0.000000
    18  H    2.705679   2.476630   0.000000
    19  H    2.962174   2.319930   3.991829   0.000000
    20  H    4.941146   4.412423   5.028392   2.525161   0.000000
    21  H    4.852346   4.962171   5.434677   3.092363   1.774047
    22  H    5.346750   5.193150   4.999802   3.765637   1.774148
    23  H    5.018533   3.853239   3.922756   3.270075   2.605001
    24  H    4.414697   3.084937   2.752045   3.679164   4.035241
    25  H    3.673471   2.250166   3.260120   2.038992   2.954926
    26  H    5.523887   4.971537   3.921975   4.555544   3.299201
    27  H    4.833462   4.831202   3.258048   4.773973   4.040492
    28  H    5.034883   4.513189   2.750908   4.959707   4.559693
    29  H    2.079027   3.132852   4.504764   2.702313   4.551713
    30  H    3.113581   3.986657   4.824199   2.813761   3.653085
    31  H    3.365072   3.730937   5.347942   2.150242   3.620834
                   21         22         23         24         25
    21  H    0.000000
    22  H    1.774199   0.000000
    23  H    4.133019   3.239754   0.000000
    24  H    5.283750   4.505382   1.774071   0.000000
    25  H    4.218985   4.002898   1.774180   1.774196   0.000000
    26  H    4.102901   2.540033   2.296710   2.991334   3.594089
    27  H    4.164729   2.921590   3.593956   3.726755   4.253703
    28  H    5.258124   3.981577   2.991006   2.525214   3.726885
    29  H    3.974921   5.119858   5.641036   5.650626   4.392082
    30  H    2.574716   3.886546   5.299906   5.726743   4.527015
    31  H    3.099335   4.546486   5.252724   5.732355   4.179791
                   26         27         28         29         30
    26  H    0.000000
    27  H    1.774045   0.000000
    28  H    1.774121   1.774144   0.000000
    29  H    6.207699   5.632873   6.270248   0.000000
    30  H    5.470906   4.889740   5.901246   1.658940   0.000000
    31  H    6.078149   5.898941   6.568655   1.659035   1.659251
                   31
    31  H    0.000000
 Stoichiometry    C10H20N(1+)
 Framework group  C1[X(C10H20N)]
 Deg. of freedom    87
 Full point group                 C1      NOp   1
 Largest Abelian subgroup         C1      NOp   1
 Largest concise Abelian subgroup C1      NOp   1
                         Standard orientation:                         
 ---------------------------------------------------------------------
 Center     Atomic      Atomic             Coordinates (Angstroms)
 Number     Number       Type             X           Y           Z
 ---------------------------------------------------------------------
      1          6           0        0.048158   -1.652666   -1.100512
      2          6           0       -0.342139   -0.255606   -1.611009
      3          6           0       -0.839801   -1.130816    1.153912
      4          6           0        0.467929   -1.381876    0.362136
      5          6           0       -1.231509    0.286836    0.705188
      6          6           0       -0.146317    0.640675   -0.355619
      7          6           0        1.135092    0.019103    0.292435
      8          6           0       -0.085840    2.119299   -0.693648
      9          6           0        1.535867    0.592806    1.667406
     10          6           0        2.412909    0.064668   -0.570737
     11          7           0       -2.612000    0.314161    0.178868
     12          1           0       -0.785604   -2.358943   -1.173187
     13          1           0        0.876959   -2.063486   -1.686656
     14          1           0        0.314025    0.049685   -2.434025
     15          1           0       -1.358526   -0.236136   -2.013642
     16          1           0       -1.603315   -1.888148    0.944981
     17          1           0       -0.648285   -1.151180    2.232338
     18          1           0        1.082219   -2.178280    0.788690
     19          1           0       -1.227723    0.987920    1.546348
     20          1           0        0.051960    2.709824    0.214471
     21          1           0       -1.012168    2.434851   -1.178103
     22          1           0        0.747813    2.319059   -1.370045
     23          1           0        1.990781    1.566008    1.525460
     24          1           0        2.243031   -0.079588    2.138414
     25          1           0        0.649316    0.686446    2.283455
     26          1           0        2.809047    1.073235   -0.563198
     27          1           0        2.165324   -0.226586   -1.584630
     28          1           0        3.143152   -0.621345   -0.157884
     29          1           0       -3.103989   -0.566093    0.377088
     30          1           0       -2.619447    0.452099   -0.839706
     31          1           0       -3.156675    1.076995    0.600434
 ---------------------------------------------------------------------
 Rotational constants (GHZ):           1.4816609           1.0802239           1.0258157
 Standard basis: 6-31G(d,p) (6D, 7F)
 There are   265 symmetry adapted cartesian basis functions of A   symmetry.
 There are   265 symmetry adapted basis functions of A   symmetry.
   265 basis functions,   448 primitive gaussians,   265 cartesian basis functions
    43 alpha electrons       43 beta electrons
       nuclear repulsion energy       731.5774244787 Hartrees.
 NAtoms=   31 NActive=   31 NUniq=   31 SFac= 1.00D+00 NAtFMM=   60 NAOKFM=F Big=F
 Integral buffers will be    131072 words long.
 Raffenetti 2 integral format.
 Two-electron integral symmetry is turned on.
 One-electron integrals computed using PRISM.
 NBasis=   265 RedAO= T EigKep=  1.25D-03  NBF=   265
 NBsUse=   265 1.00D-06 EigRej= -1.00D+00 NBFU=   265
 ExpMin= 1.61D-01 ExpMax= 4.17D+03 ExpMxC= 6.27D+02 IAcc=3 IRadAn=         5 AccDes= 0.00D+00
 Harris functional with IExCor=  402 and IRadAn=       5 diagonalized for initial guess.
 HarFok:  IExCor=  402 AccDes= 0.00D+00 IRadAn=         5 IDoV= 1 UseB2=F ITyADJ=14
 ICtDFT=  3500011 ScaDFX=  1.000000  1.000000  1.000000  1.000000
 FoFCou: FMM=F IPFlag=           0 FMFlag=      100000 FMFlg1=           0
         NFxFlg=           0 DoJE=T BraDBF=F KetDBF=T FulRan=T
         wScrn=  0.000000 ICntrl=       500 IOpCl=  0 I1Cent=   200000004 NGrid=           0
         NMat0=    1 NMatS0=      1 NMatT0=    0 NMatD0=    1 NMtDS0=    0 NMtDT0=    0
 Petite list used in FoFCou.
 Requested convergence on RMS density matrix=1.00D-08 within 128 cycles.
 Requested convergence on MAX density matrix=1.00D-06.
 Requested convergence on             energy=1.00D-06.
 No special actions if energy rises.
 Integral accuracy reduced to 1.0D-05 until final iterations.
 Initial convergence to 1.0D-05 achieved.  Increase integral accuracy.
 SCF Done:  E(RB3LYP) =  -447.647119574     A.U. after   12 cycles
            NFock= 12  Conv=0.74D-08     -V/T= 2.0092

 **********************************************************************

            Population analysis using the SCF density.

 **********************************************************************

 Orbital symmetries:
       Occupied  (A) (A) (A) (A) (A) (A) (A) (A) (A) (A) (A) (A)
                 (A) (A) (A) (A) (A) (A) (A) (A) (A) (A) (A) (A)
                 (A) (A) (A) (A) (A) (A) (A) (A) (A) (A) (A) (A)
                 (A) (A) (A) (A) (A) (A) (A)
       Virtual   (A) (A) (A) (A) (A) (A) (A) (A) (A) (A) (A) (A)
                 (A) (A) (A) (A) (A) (A) (A) (A) (A) (A) (A) (A)
                 (A) (A) (A) (A) (A) (A) (A) (A) (A) (A) (A) (A)
                 (A) (A) (A) (A) (A) (A) (A) (A) (A) (A) (A) (A)
                 (A) (A) (A) (A) (A) (A) (A) (A) (A) (A) (A) (A)
                 (A) (A) (A) (A) (A) (A) (A) (A) (A) (A) (A) (A)
                 (A) (A) (A) (A) (A) (A) (A) (A) (A) (A) (A) (A)
                 (A) (A) (A) (A) (A) (A) (A) (A) (A) (A) (A) (A)
                 (A) (A) (A) (A) (A) (A) (A) (A) (A) (A) (A) (A)
                 (A) (A) (A) (A) (A) (A) (A) (A) (A) (A) (A) (A)
                 (A) (A) (A) (A) (A) (A) (A) (A) (A) (A) (A) (A)
                 (A) (A) (A) (A) (A) (A) (A) (A) (A) (A) (A) (A)
                 (A) (A) (A) (A) (A) (A) (A) (A) (A) (A) (A) (A)
                 (A) (A) (A) (A) (A) (A) (A) (A) (A) (A) (A) (A)
                 (A) (A) (A) (A) (A) (A) (A) (A) (A) (A) (A) (A)
                 (A) (A) (A) (A) (A) (A) (A) (A) (A) (A) (A) (A)
                 (A) (A) (A) (A) (A) (A) (A) (A) (A) (A) (A) (A)
                 (A) (A) (A) (A) (A) (A) (A) (A) (A) (A) (A) (A)
                 (A) (A) (A) (A) (A) (A)
 The electronic state is 1-A.
 Alpha  occ. eigenvalues --  -14.64544 -10.40915 -10.34910 -10.34083 -10.32735
 Alpha  occ. eigenvalues --  -10.32635 -10.31976 -10.31203 -10.31025 -10.29397
 Alpha  occ. eigenvalues --  -10.28871  -1.19624  -1.02904  -0.91485  -0.90342
 Alpha  occ. eigenvalues --   -0.89458  -0.82288  -0.80376  -0.79012  -0.78366
 Alpha  occ. eigenvalues --   -0.76415  -0.75247  -0.69489  -0.65767  -0.64780
 Alpha  occ. eigenvalues --   -0.62071  -0.60737  -0.57667  -0.56309  -0.55495
 Alpha  occ. eigenvalues --   -0.55036  -0.53605  -0.52934  -0.51872  -0.50570
 Alpha  occ. eigenvalues --   -0.49776  -0.48898  -0.47440  -0.46288  -0.45468
 Alpha  occ. eigenvalues --   -0.44303  -0.43553  -0.42506
 Alpha virt. eigenvalues --   -0.14949  -0.10981  -0.09667  -0.06025  -0.04710
 Alpha virt. eigenvalues --   -0.02983  -0.01684  -0.01269   0.00675   0.01733
 Alpha virt. eigenvalues --    0.02279   0.03144   0.03705   0.04436   0.04618
 Alpha virt. eigenvalues --    0.05618   0.06304   0.06891   0.07648   0.08078
 Alpha virt. eigenvalues --    0.09337   0.10165   0.11222   0.11396   0.12137
 Alpha virt. eigenvalues --    0.12815   0.13984   0.14774   0.14981   0.16683
 Alpha virt. eigenvalues --    0.17992   0.20058   0.31217   0.34394   0.35657
 Alpha virt. eigenvalues --    0.37412   0.38658   0.39730   0.39978   0.43012
 Alpha virt. eigenvalues --    0.45322   0.46031   0.46934   0.47720   0.50588
 Alpha virt. eigenvalues --    0.51065   0.52029   0.53144   0.54051   0.54959
 Alpha virt. eigenvalues --    0.57013   0.59289   0.60084   0.60523   0.62292
 Alpha virt. eigenvalues --    0.62525   0.64315   0.65710   0.66697   0.67882
 Alpha virt. eigenvalues --    0.68164   0.69717   0.70133   0.70868   0.72700
 Alpha virt. eigenvalues --    0.73778   0.74178   0.74698   0.76110   0.76486
 Alpha virt. eigenvalues --    0.76822   0.77442   0.79264   0.79790   0.80616
 Alpha virt. eigenvalues --    0.80713   0.81471   0.83051   0.84068   0.85280
 Alpha virt. eigenvalues --    0.85949   0.86757   0.88824   0.92072   1.00868
 Alpha virt. eigenvalues --    1.05747   1.07784   1.11460   1.17611   1.18396
 Alpha virt. eigenvalues --    1.20521   1.26526   1.29689   1.34200   1.36996
 Alpha virt. eigenvalues --    1.40715   1.42533   1.45580   1.46368   1.47310
 Alpha virt. eigenvalues --    1.49147   1.52178   1.54133   1.56382   1.59564
 Alpha virt. eigenvalues --    1.60173   1.61438   1.65213   1.65805   1.68038
 Alpha virt. eigenvalues --    1.69502   1.71019   1.73345   1.75004   1.76282
 Alpha virt. eigenvalues --    1.78080   1.78775   1.81240   1.81396   1.82362
 Alpha virt. eigenvalues --    1.84124   1.85983   1.86951   1.88270   1.90180
 Alpha virt. eigenvalues --    1.90644   1.91161   1.91554   1.92287   1.94116
 Alpha virt. eigenvalues --    1.95457   1.96670   1.98617   1.99656   2.00215
 Alpha virt. eigenvalues --    2.00636   2.01744   2.03493   2.03826   2.05307
 Alpha virt. eigenvalues --    2.07517   2.09548   2.13781   2.15239   2.15383
 Alpha virt. eigenvalues --    2.18862   2.20967   2.22571   2.24385   2.25506
 Alpha virt. eigenvalues --    2.27961   2.28479   2.29510   2.32157   2.33251
 Alpha virt. eigenvalues --    2.34850   2.35808   2.38759   2.40503   2.42091
 Alpha virt. eigenvalues --    2.44260   2.46798   2.47157   2.48994   2.51214
 Alpha virt. eigenvalues --    2.52277   2.54183   2.55008   2.56221   2.58429
 Alpha virt. eigenvalues --    2.58788   2.59484   2.61705   2.63868   2.64715
 Alpha virt. eigenvalues --    2.66562   2.67976   2.68469   2.69711   2.71773
 Alpha virt. eigenvalues --    2.73406   2.77019   2.78131   2.78529   2.80602
 Alpha virt. eigenvalues --    2.81365   2.85702   2.87389   2.89117   2.92084
 Alpha virt. eigenvalues --    2.98128   2.99432   3.09596   3.12381   3.13207
 Alpha virt. eigenvalues --    3.15946   3.16420   3.18134   3.19466   3.23525
 Alpha virt. eigenvalues --    3.25891   3.27451   3.28733   3.32175   3.33371
 Alpha virt. eigenvalues --    3.33771   3.34578   3.36029   3.37745   3.41018
 Alpha virt. eigenvalues --    3.43610   3.93423   4.20076   4.32824   4.37690
 Alpha virt. eigenvalues --    4.40642   4.43081   4.46807   4.60685   4.70429
 Alpha virt. eigenvalues --    4.74159   4.82906
          Condensed to atoms (all electrons):
               1          2          3          4          5          6
     1  C    4.997453   0.329530  -0.042121   0.373903  -0.014279  -0.064402
     2  C    0.329530   5.080225  -0.014084  -0.074766  -0.040053   0.376958
     3  C   -0.042121  -0.014084   5.075435   0.364546   0.320313  -0.076944
     4  C    0.373903  -0.074766   0.364546   4.986816  -0.075293  -0.043936
     5  C   -0.014279  -0.040053   0.320313  -0.075293   5.209203   0.355608
     6  C   -0.064402   0.376958  -0.076944  -0.043936   0.355608   5.035962
     7  C   -0.059314  -0.065629  -0.048964   0.349095  -0.060773   0.344310
     8  C    0.006760  -0.058427   0.007050   0.006548  -0.059601   0.369032
     9  C    0.005392   0.005389  -0.007202  -0.049674  -0.004760  -0.049247
    10  C   -0.006323  -0.008317   0.005300  -0.047701   0.005305  -0.046039
    11  N    0.001968  -0.016151  -0.046254   0.003357   0.129405  -0.031944
    12  H    0.380322  -0.034727  -0.009862  -0.034504   0.000608   0.002245
    13  H    0.390752  -0.030060   0.004485  -0.029217   0.000029   0.001480
    14  H   -0.029390   0.392392  -0.000199   0.001905   0.004399  -0.027647
    15  H   -0.035826   0.361392   0.000762   0.003709  -0.011992  -0.038143
    16  H   -0.009109   0.000158   0.376936  -0.026997  -0.043329   0.001663
    17  H    0.004605  -0.000016   0.380190  -0.026580  -0.026369   0.002250
    18  H   -0.033603   0.006317  -0.036831   0.385389   0.006817   0.005555
    19  H   -0.000357   0.004338  -0.030313   0.002286   0.395973  -0.030932
    20  H   -0.000273   0.005459   0.000035   0.000244  -0.005930  -0.029919
    21  H   -0.000016  -0.006248  -0.000110  -0.000300  -0.006707  -0.032915
    22  H    0.000002  -0.004772  -0.000226   0.000353   0.005258  -0.024117
    23  H   -0.000198  -0.000032   0.000081   0.005196  -0.000686  -0.003967
    24  H    0.000004  -0.000137  -0.000425  -0.005852  -0.000097   0.005538
    25  H    0.000031  -0.000002   0.001545  -0.006340   0.003726  -0.010884
    26  H    0.000062  -0.000451  -0.000199   0.005186  -0.000040  -0.004488
    27  H    0.001790   0.003366   0.000009  -0.006155   0.000074  -0.009534
    28  H   -0.000574   0.000075   0.000011  -0.005610  -0.000132   0.005315
    29  H   -0.000048  -0.000145  -0.004210  -0.000149  -0.022757   0.002841
    30  H   -0.001416   0.011057   0.003584  -0.000027  -0.032913  -0.007179
    31  H   -0.000045   0.000562   0.003266  -0.000139  -0.018604   0.001124
               7          8          9         10         11         12
     1  C   -0.059314   0.006760   0.005392  -0.006323   0.001968   0.380322
     2  C   -0.065629  -0.058427   0.005389  -0.008317  -0.016151  -0.034727
     3  C   -0.048964   0.007050  -0.007202   0.005300  -0.046254  -0.009862
     4  C    0.349095   0.006548  -0.049674  -0.047701   0.003357  -0.034504
     5  C   -0.060773  -0.059601  -0.004760   0.005305   0.129405   0.000608
     6  C    0.344310   0.369032  -0.049247  -0.046039  -0.031944   0.002245
     7  C    5.012121  -0.040669   0.377134   0.391082   0.003714   0.005033
     8  C   -0.040669   4.963801  -0.002424  -0.003583   0.000481  -0.000138
     9  C    0.377134  -0.002424   4.963168  -0.063064   0.000371  -0.000147
    10  C    0.391082  -0.003583  -0.063064   4.940738  -0.000077   0.000218
    11  N    0.003714   0.000481   0.000371  -0.000077   6.577305   0.000000
    12  H    0.005033  -0.000138  -0.000147   0.000218   0.000000   0.616703
    13  H   -0.002062  -0.000144  -0.000027   0.001551  -0.000017  -0.028617
    14  H   -0.003012  -0.004081   0.000009  -0.000190   0.000232   0.003846
    15  H    0.005441  -0.000453  -0.000160   0.000487  -0.005654  -0.008714
    16  H    0.004883  -0.000130   0.000187  -0.000125  -0.010801   0.006194
    17  H   -0.002894  -0.000153   0.001563  -0.000020   0.003199   0.000202
    18  H   -0.030695  -0.000222  -0.002024  -0.002251  -0.000076   0.000562
    19  H   -0.002722  -0.003872   0.001047   0.000023  -0.046800   0.000003
    20  H   -0.006925   0.380087   0.002434  -0.000201  -0.000175   0.000005
    21  H    0.005677   0.375087  -0.000044  -0.000019   0.001057  -0.000007
    22  H   -0.007025   0.387639  -0.000209   0.002685  -0.000063   0.000002
    23  H   -0.029675   0.001238   0.385287  -0.007293  -0.000010   0.000003
    24  H   -0.028448   0.000005   0.387066  -0.003284  -0.000004  -0.000001
    25  H   -0.038896  -0.000183   0.372188   0.006171   0.000085   0.000001
    26  H   -0.029994   0.001333  -0.007721   0.384408   0.000000  -0.000002
    27  H   -0.034764  -0.000409   0.005983   0.379032  -0.000002  -0.000022
    28  H   -0.028948   0.000040  -0.003722   0.387132   0.000001  -0.000010
    29  H    0.000033  -0.000077  -0.000006   0.000001   0.327506   0.000292
    30  H    0.000547   0.002088  -0.000008  -0.000016   0.315652  -0.000356
    31  H   -0.000072   0.000105   0.000010   0.000001   0.333089   0.000002
              13         14         15         16         17         18
     1  C    0.390752  -0.029390  -0.035826  -0.009109   0.004605  -0.033603
     2  C   -0.030060   0.392392   0.361392   0.000158  -0.000016   0.006317
     3  C    0.004485  -0.000199   0.000762   0.376936   0.380190  -0.036831
     4  C   -0.029217   0.001905   0.003709  -0.026997  -0.026580   0.385389
     5  C    0.000029   0.004399  -0.011992  -0.043329  -0.026369   0.006817
     6  C    0.001480  -0.027647  -0.038143   0.001663   0.002250   0.005555
     7  C   -0.002062  -0.003012   0.005441   0.004883  -0.002894  -0.030695
     8  C   -0.000144  -0.004081  -0.000453  -0.000130  -0.000153  -0.000222
     9  C   -0.000027   0.000009  -0.000160   0.000187   0.001563  -0.002024
    10  C    0.001551  -0.000190   0.000487  -0.000125  -0.000020  -0.002251
    11  N   -0.000017   0.000232  -0.005654  -0.010801   0.003199  -0.000076
    12  H   -0.028617   0.003846  -0.008714   0.006194   0.000202   0.000562
    13  H    0.562405  -0.012353   0.003371   0.000141  -0.000181  -0.003372
    14  H   -0.012353   0.544118  -0.028077   0.000013   0.000014  -0.000140
    15  H    0.003371  -0.028077   0.662726  -0.000174   0.000004  -0.000121
    16  H    0.000141   0.000013  -0.000174   0.602317  -0.027745   0.000065
    17  H   -0.000181   0.000014   0.000004  -0.027745   0.550434  -0.003209
    18  H   -0.003372  -0.000140  -0.000121   0.000065  -0.003209   0.592120
    19  H    0.000018  -0.000126  -0.000009   0.003539  -0.011128  -0.000128
    20  H    0.000004   0.000079  -0.000165   0.000003  -0.000020  -0.000000
    21  H    0.000002  -0.000318   0.001795  -0.000006   0.000001   0.000004
    22  H   -0.000022   0.003680  -0.000115   0.000004   0.000005  -0.000000
    23  H    0.000000  -0.000006   0.000000  -0.000001  -0.000082  -0.000042
    24  H   -0.000007  -0.000001   0.000003  -0.000011   0.000347   0.002665
    25  H   -0.000002   0.000003  -0.000004  -0.000044   0.001626  -0.000177
    26  H   -0.000046   0.000138  -0.000012   0.000003  -0.000001  -0.000047
    27  H    0.001151   0.002305  -0.000049   0.000001  -0.000003  -0.000181
    28  H    0.000311  -0.000082  -0.000005  -0.000001  -0.000007   0.002593
    29  H   -0.000001   0.000014  -0.000320   0.012095   0.000159  -0.000018
    30  H    0.000064  -0.001095   0.020331   0.000449  -0.000210  -0.000001
    31  H    0.000000  -0.000007   0.000181   0.000327  -0.000208   0.000003
              19         20         21         22         23         24
     1  C   -0.000357  -0.000273  -0.000016   0.000002  -0.000198   0.000004
     2  C    0.004338   0.005459  -0.006248  -0.004772  -0.000032  -0.000137
     3  C   -0.030313   0.000035  -0.000110  -0.000226   0.000081  -0.000425
     4  C    0.002286   0.000244  -0.000300   0.000353   0.005196  -0.005852
     5  C    0.395973  -0.005930  -0.006707   0.005258  -0.000686  -0.000097
     6  C   -0.030932  -0.029919  -0.032915  -0.024117  -0.003967   0.005538
     7  C   -0.002722  -0.006925   0.005677  -0.007025  -0.029675  -0.028448
     8  C   -0.003872   0.380087   0.375087   0.387639   0.001238   0.000005
     9  C    0.001047   0.002434  -0.000044  -0.000209   0.385287   0.387066
    10  C    0.000023  -0.000201  -0.000019   0.002685  -0.007293  -0.003284
    11  N   -0.046800  -0.000175   0.001057  -0.000063  -0.000010  -0.000004
    12  H    0.000003   0.000005  -0.000007   0.000002   0.000003  -0.000001
    13  H    0.000018   0.000004   0.000002  -0.000022   0.000000  -0.000007
    14  H   -0.000126   0.000079  -0.000318   0.003680  -0.000006  -0.000001
    15  H   -0.000009  -0.000165   0.001795  -0.000115   0.000000   0.000003
    16  H    0.003539   0.000003  -0.000006   0.000004  -0.000001  -0.000011
    17  H   -0.011128  -0.000020   0.000001   0.000005  -0.000082   0.000347
    18  H   -0.000128  -0.000000   0.000004  -0.000000  -0.000042   0.002665
    19  H    0.550015   0.004849  -0.000445   0.000002   0.000184  -0.000167
    20  H    0.004849   0.581749  -0.033366  -0.024552   0.001648  -0.000067
    21  H   -0.000445  -0.033366   0.632280  -0.026477  -0.000060   0.000001
    22  H    0.000002  -0.024552  -0.026477   0.537154   0.000174  -0.000013
    23  H    0.000184   0.001648  -0.000060   0.000174   0.566965  -0.026086
    24  H   -0.000167  -0.000067   0.000001  -0.000013  -0.026086   0.553395
    25  H    0.002022   0.000049  -0.000014   0.000023  -0.028557  -0.026248
    26  H   -0.000007   0.000131  -0.000060   0.001989   0.005159  -0.000404
    27  H    0.000001   0.000019  -0.000017   0.000170   0.000105  -0.000042
    28  H   -0.000001  -0.000008   0.000001  -0.000089  -0.000381   0.002963
    29  H    0.002956  -0.000010   0.000004   0.000005   0.000000  -0.000000
    30  H    0.004259  -0.000001   0.002870  -0.000232  -0.000000   0.000000
    31  H   -0.006715   0.000078  -0.000013  -0.000002  -0.000001  -0.000000
              25         26         27         28         29         30
     1  C    0.000031   0.000062   0.001790  -0.000574  -0.000048  -0.001416
     2  C   -0.000002  -0.000451   0.003366   0.000075  -0.000145   0.011057
     3  C    0.001545  -0.000199   0.000009   0.000011  -0.004210   0.003584
     4  C   -0.006340   0.005186  -0.006155  -0.005610  -0.000149  -0.000027
     5  C    0.003726  -0.000040   0.000074  -0.000132  -0.022757  -0.032913
     6  C   -0.010884  -0.004488  -0.009534   0.005315   0.002841  -0.007179
     7  C   -0.038896  -0.029994  -0.034764  -0.028948   0.000033   0.000547
     8  C   -0.000183   0.001333  -0.000409   0.000040  -0.000077   0.002088
     9  C    0.372188  -0.007721   0.005983  -0.003722  -0.000006  -0.000008
    10  C    0.006171   0.384408   0.379032   0.387132   0.000001  -0.000016
    11  N    0.000085   0.000000  -0.000002   0.000001   0.327506   0.315652
    12  H    0.000001  -0.000002  -0.000022  -0.000010   0.000292  -0.000356
    13  H   -0.000002  -0.000046   0.001151   0.000311  -0.000001   0.000064
    14  H    0.000003   0.000138   0.002305  -0.000082   0.000014  -0.001095
    15  H   -0.000004  -0.000012  -0.000049  -0.000005  -0.000320   0.020331
    16  H   -0.000044   0.000003   0.000001  -0.000001   0.012095   0.000449
    17  H    0.001626  -0.000001  -0.000003  -0.000007   0.000159  -0.000210
    18  H   -0.000177  -0.000047  -0.000181   0.002593  -0.000018  -0.000001
    19  H    0.002022  -0.000007   0.000001  -0.000001   0.002956   0.004259
    20  H    0.000049   0.000131   0.000019  -0.000008  -0.000010  -0.000001
    21  H   -0.000014  -0.000060  -0.000017   0.000001   0.000004   0.002870
    22  H    0.000023   0.001989   0.000170  -0.000089   0.000005  -0.000232
    23  H   -0.028557   0.005159   0.000105  -0.000381   0.000000  -0.000000
    24  H   -0.026248  -0.000404  -0.000042   0.002963  -0.000000   0.000000
    25  H    0.637534   0.000111  -0.000313  -0.000037   0.000003  -0.000019
    26  H    0.000111   0.572936  -0.027566  -0.026847   0.000000   0.000000
    27  H   -0.000313  -0.027566   0.602568  -0.025621   0.000000   0.000002
    28  H   -0.000037  -0.026847  -0.025621   0.557161  -0.000000   0.000000
    29  H    0.000003   0.000000   0.000000  -0.000000   0.355079  -0.016364
    30  H   -0.000019   0.000000   0.000002   0.000000  -0.016364   0.361585
    31  H    0.000019   0.000000   0.000000  -0.000000  -0.014764  -0.013264
              31
     1  C   -0.000045
     2  C    0.000562
     3  C    0.003266
     4  C   -0.000139
     5  C   -0.018604
     6  C    0.001124
     7  C   -0.000072
     8  C    0.000105
     9  C    0.000010
    10  C    0.000001
    11  N    0.333089
    12  H    0.000002
    13  H    0.000000
    14  H   -0.000007
    15  H    0.000181
    16  H    0.000327
    17  H   -0.000208
    18  H    0.000003
    19  H   -0.006715
    20  H    0.000078
    21  H   -0.000013
    22  H   -0.000002
    23  H   -0.000001
    24  H   -0.000000
    25  H    0.000019
    26  H    0.000000
    27  H    0.000000
    28  H   -0.000000
    29  H   -0.014764
    30  H   -0.013264
    31  H    0.349357
 Mulliken charges:
               1
     1  C   -0.195279
     2  C   -0.223200
     3  C   -0.225602
     4  C   -0.055294
     5  C   -0.012406
     6  C    0.022353
     7  C    0.022410
     8  C   -0.326726
     9  C   -0.316789
    10  C   -0.315634
    11  N   -0.539397
    12  H    0.100865
    13  H    0.140364
    14  H    0.153577
    15  H    0.069791
    16  H    0.109494
    17  H    0.154225
    18  H    0.111048
    19  H    0.162208
    20  H    0.124741
    21  H    0.088362
    22  H    0.148769
    23  H    0.131034
    24  H    0.139308
    25  H    0.086585
    26  H    0.126426
    27  H    0.108097
    28  H    0.136472
    29  H    0.357879
    30  H    0.350612
    31  H    0.365708
 Sum of Mulliken charges =   1.00000
 Mulliken charges with hydrogens summed into heavy atoms:
               1
     1  C    0.045950
     2  C    0.000168
     3  C    0.038117
     4  C    0.055753
     5  C    0.149801
     6  C    0.022353
     7  C    0.022410
     8  C    0.035147
     9  C    0.040138
    10  C    0.055361
    11  N    0.534801
 Electronic spatial extent (au):  <R**2>=           1559.8067
 Charge=              1.0000 electrons
 Dipole moment (field-independent basis, Debye):
    X=             -8.0363    Y=              0.9242    Z=              0.6852  Tot=              8.1182
 Quadrupole moment (field-independent basis, Debye-Ang):
   XX=            -35.3705   YY=            -62.8555   ZZ=            -63.0648
   XY=             -3.1089   XZ=             -2.1549   YZ=              0.0974
 Traceless Quadrupole moment (field-independent basis, Debye-Ang):
   XX=             18.3931   YY=             -9.0919   ZZ=             -9.3012
   XY=             -3.1089   XZ=             -2.1549   YZ=              0.0974
 Octapole moment (field-independent basis, Debye-Ang**2):
  XXX=            -92.9971  YYY=              2.3642  ZZZ=              0.3317  XYY=             -8.4546
  XXY=              9.3848  XXZ=              8.1651  XZZ=             -6.6595  YZZ=              0.4272
  YYZ=              2.2255  XYZ=             -1.9629
 Hexadecapole moment (field-independent basis, Debye-Ang**3):
 XXXX=           -604.1343 YYYY=           -597.7018 ZZZZ=           -528.1401 XXXY=            -36.0047
 XXXZ=            -17.6942 YYYX=             -5.2837 YYYZ=              1.6295 ZZZX=             -8.8504
 ZZZY=             -1.9428 XXYY=           -215.7172 XXZZ=           -221.6534 YYZZ=           -185.9280
 XXYZ=              2.2837 YYXZ=             -6.6183 ZZXY=             -7.9109
 N-N= 7.315774244787D+02 E-N=-2.484481543518D+03  KE= 4.435546089324D+02
 Calling FoFJK, ICntrl=      2127 FMM=F ISym2X=0 I1Cent= 0 IOpClX= 0 NMat=1 NMatS=1 NMatT=0.
 ***** Axes restored to original set *****
 -------------------------------------------------------------------
 Center     Atomic                   Forces (Hartrees/Bohr)
 Number     Number              X              Y              Z
 -------------------------------------------------------------------
      1        6          -0.008403563   -0.003382106   -0.005591273
      2        6           0.001812007   -0.004146659   -0.000015027
      3        6           0.002990300   -0.012185080   -0.013707889
      4        6          -0.013048862   -0.006708054   -0.001700654
      5        6           0.003239150   -0.009645384   -0.023136836
      6        6           0.013372308    0.020014620   -0.003719126
      7        6          -0.002325941   -0.010786355   -0.003379080
      8        6           0.001062249   -0.004640073    0.001103903
      9        6          -0.013353428    0.010204331    0.013340455
     10        6          -0.005299765    0.000454586    0.021990129
     11        7          -0.000448742    0.010819195    0.027419768
     12        1          -0.001289459   -0.002110770   -0.002683328
     13        1          -0.000902647   -0.001698446    0.002315838
     14        1           0.005003478   -0.000150746    0.005566565
     15        1          -0.000906784    0.004902913    0.002832596
     16        1          -0.000959646    0.000245220    0.000347659
     17        1          -0.001878485    0.000716647    0.002716710
     18        1           0.000603633   -0.000999678    0.000391002
     19        1          -0.001729289    0.003455550   -0.001851474
     20        1           0.003515627    0.002175441    0.000263272
     21        1           0.003300329    0.005336311    0.001209290
     22        1           0.000946991    0.002019836    0.001607559
     23        1           0.007280666   -0.001027054   -0.001582295
     24        1           0.001917982   -0.005304349   -0.003723107
     25        1           0.009362879   -0.009071280   -0.000804883
     26        1           0.003104576    0.004093646   -0.005245921
     27        1          -0.002340388    0.005204275   -0.009886301
     28        1          -0.001095961   -0.001805119   -0.006013114
     29        1           0.001669950    0.002180846    0.000809653
     30        1          -0.001300599    0.000040734    0.000878087
     31        1          -0.003898565    0.001797006    0.000247823
 -------------------------------------------------------------------
 Cartesian Forces:  Max     0.027419768 RMS     0.007081610

 GradGradGradGradGradGradGradGradGradGradGradGradGradGradGradGradGradGrad
 Berny optimization.
 FormGI is forming the generalized inverse of G from B-inverse, IUseBI=4.
 Internal  Forces:  Max     0.032528197 RMS     0.004076292
 Search for a local minimum.
 Step number   1 out of a maximum of  186
 All quantities printed in internal units (Hartrees-Bohrs-Radians)
 Mixed Optimization -- RFO/linear search
 Second derivative matrix not updated -- first step.
 ITU=  0
     Eigenvalues ---    0.16000   0.16000   0.16000   0.16000   0.16000
     Eigenvalues ---    0.16000   0.16000   0.16000   0.16000   0.16000
     Eigenvalues ---    0.16000   0.16000   0.27494   0.28154   0.28270
     Eigenvalues ---    0.28280   0.30562   0.34134   0.34183   0.34186
     Eigenvalues ---    0.34229   0.34230   0.34238   0.34422   0.34525
     Eigenvalues ---    0.34586   0.34586   0.34588   0.34838   0.35556
     Eigenvalues ---    0.35559   0.35561   0.35563   0.35567   0.35571
     Eigenvalues ---    0.43101   0.43122   0.431301000.000001000.00000
     Eigenvalues --- 1000.000001000.000001000.000001000.000001000.00000
     Eigenvalues --- 1000.000001000.000001000.000001000.000001000.00000
     Eigenvalues --- 1000.000001000.000001000.000001000.000001000.00000
     Eigenvalues --- 1000.000001000.000001000.000001000.000001000.00000
     Eigenvalues --- 1000.000001000.000001000.000001000.000001000.00000
     Eigenvalues --- 1000.000001000.000001000.000001000.000001000.00000
     Eigenvalues --- 1000.000001000.000001000.000001000.000001000.00000
     Eigenvalues --- 1000.000001000.000001000.000001000.000001000.00000
     Eigenvalues --- 1000.000001000.000001000.000001000.000001000.00000
     Eigenvalues --- 1000.000001000.000001000.000001000.000001000.00000
     Eigenvalues --- 1000.000001000.000001000.000001000.000001000.00000
     Eigenvalues --- 1000.000001000.000001000.000001000.000001000.00000
     Eigenvalues --- 1000.000001000.000001000.000001000.000001000.00000
     Eigenvalues --- 1000.000001000.000001000.000001000.000001000.00000
     Eigenvalues --- 1000.000001000.000001000.000001000.000001000.00000
     Eigenvalues --- 1000.000001000.000001000.000001000.000001000.00000
     Eigenvalues --- 1000.000001000.000001000.000001000.000001000.00000
     Eigenvalues --- 1000.000001000.000001000.000001000.000001000.00000
     Eigenvalues --- 1000.000001000.000001000.000001000.000001000.00000
     Eigenvalues --- 1000.000001000.000001000.000001000.000001000.00000
     Eigenvalues --- 1000.000001000.000001000.000001000.000001000.00000
     Eigenvalues --- 1000.000001000.000001000.000001000.000001000.00000
     Eigenvalues --- 1000.000001000.000001000.000001000.000001000.00000
     Eigenvalues --- 1000.000001000.000001000.000001000.000001000.00000
     Eigenvalues --- 1000.000001000.000001000.000001000.000001000.00000
     Eigenvalues --- 1000.000001000.000001000.000001000.000001000.00000
     Eigenvalues --- 1000.000001000.000001000.000001000.000001000.00000
     Eigenvalues --- 1000.000001000.000001000.000001000.000001000.00000
     Eigenvalues --- 1000.000001000.000001000.000001000.000001000.00000
     Eigenvalues --- 1000.000001000.000001000.000001000.000001000.00000
     Eigenvalues --- 1000.000001000.000001000.000001000.000001000.00000
     Eigenvalues --- 1000.000001000.000001000.000001000.000001000.00000
     Eigenvalues --- 1000.000001000.000001000.000001000.000001000.00000
     Eigenvalues --- 1000.00000
 RFO step:  Lambda=-1.10194770D-02 EMin= 1.60000000D-01
 Linear search not attempted -- first point.
 Iteration  1 RMS(Cart)=  0.03007144 RMS(Int)=  0.00076399
 Iteration  2 RMS(Cart)=  0.00077098 RMS(Int)=  0.00020749
 Iteration  3 RMS(Cart)=  0.00000053 RMS(Int)=  0.00020749
 Iteration  1 RMS(Cart)=  0.00005315 RMS(Int)=  0.00003809
 Iteration  2 RMS(Cart)=  0.00001770 RMS(Int)=  0.00004210
 Iteration  3 RMS(Cart)=  0.00000590 RMS(Int)=  0.00004496
 Iteration  4 RMS(Cart)=  0.00000197 RMS(Int)=  0.00004605
 Iteration  5 RMS(Cart)=  0.00000066 RMS(Int)=  0.00004642
 Variable       Old X    -DE/DX   Delta X   Delta X   Delta X     New X
                                 (Linear)    (Quad)   (Total)
    R1        2.90595   0.01575   0.00000   0.04553   0.04553   2.95148
    R2        2.92076   0.00192   0.00000  -0.00636  -0.00636   2.91440
    R3        2.06946  -0.00043   0.00000  -0.00120  -0.00120   2.06826
    R4        2.06944  -0.00199   0.00000  -0.00562  -0.00562   2.06382
    R5        2.93831   0.00030   0.00000  -0.00534  -0.00534   2.93296
    R6        2.07105  -0.00372   0.00000  -0.01056  -0.01056   2.06048
    R7        2.06624   0.00453   0.00000   0.01277   0.01277   2.07900
    R8        2.92761  -0.00128   0.00000   0.00799   0.00799   2.93560
    R9        2.90583   0.01418   0.00000   0.03913   0.03913   2.94497
   R10        2.07023   0.00093   0.00000   0.00264   0.00264   2.07287
   R11        2.07017  -0.00173   0.00000  -0.00491  -0.00491   2.06526
   R12        2.93529   0.00634   0.00000   0.03090   0.03090   2.96619
   R13        2.06453   0.00024   0.00000   0.00068   0.00068   2.06521
   R14        2.94467  -0.00057   0.00000   0.00892   0.00892   2.95359
   R15        2.79239   0.03253   0.00000   0.09051   0.09051   2.88290
   R16        2.06930  -0.00314   0.00000  -0.00888  -0.00888   2.06042
   R17        2.95688   0.00691   0.00000   0.02903   0.02903   2.98591
   R18        2.86856   0.01007   0.00000   0.03179   0.03179   2.90035
   R19        2.91551   0.00630   0.00000   0.02146   0.02146   2.93697
   R20        2.91530   0.00375   0.00000   0.01275   0.01275   2.92806
   R21        2.06352   0.00204   0.00000   0.00572   0.00572   2.06924
   R22        2.06349   0.00370   0.00000   0.01036   0.01036   2.07384
   R23        2.06352  -0.00006   0.00000  -0.00016  -0.00016   2.06336
   R24        2.04773   0.00568   0.00000   0.01550   0.01550   2.06323
   R25        2.04758   0.00573   0.00000   0.01562   0.01562   2.06320
   R26        2.04777   0.00533   0.00000   0.01455   0.01455   2.06232
   R27        2.04771   0.00577   0.00000   0.01574   0.01574   2.06345
   R28        2.04764   0.00423   0.00000   0.01154   0.01154   2.05918
   R29        2.04782   0.00571   0.00000   0.01559   0.01559   2.06341
   R30        1.94209  -0.00212   0.00000  -0.00479  -0.00479   1.93730
   R31        1.94245   0.00043   0.00000   0.00097   0.00097   1.94341
   R32        1.94220  -0.00281   0.00000  -0.00634  -0.00634   1.93585
    A1        1.79663  -0.00180   0.00000  -0.00000  -0.00000   1.79663
    A2        1.95051   0.00217   0.00000   0.00000   0.00000   1.95051
    A3        1.93395   0.00144   0.00000   0.00000   0.00000   1.93395
    A4        1.96337  -0.00048   0.00000   0.00000   0.00000   1.96337
    A5        1.94625   0.00032   0.00000  -0.00000   0.00000   1.94625
    A6        1.87417  -0.00150   0.00000  -0.00000  -0.00000   1.87417
    A7        1.79640   0.00301   0.00000   0.00000   0.00000   1.79640
    A8        1.92881   0.00188   0.00000   0.00000   0.00000   1.92881
    A9        1.95449   0.00046   0.00000  -0.00000  -0.00000   1.95449
   A10        1.95017  -0.00404   0.00000  -0.00000  -0.00000   1.95017
   A11        1.98681  -0.00020   0.00000  -0.00000   0.00000   1.98681
   A12        1.84944  -0.00102   0.00000   0.00000   0.00000   1.84944
   A13        1.78779   0.00060   0.00000  -0.00000   0.00000   1.78779
   A14        1.95930  -0.00164   0.00000  -0.00000   0.00000   1.95930
   A15        1.93107   0.00220   0.00000  -0.00000  -0.00000   1.93107
   A16        1.98683  -0.00036   0.00000   0.00000  -0.00000   1.98683
   A17        1.92724  -0.00011   0.00000   0.00000   0.00000   1.92724
   A18        1.87207  -0.00053   0.00000  -0.00000   0.00000   1.87207
   A19        1.85749   0.00118   0.00000   0.00000   0.00000   1.85749
   A20        1.80514  -0.00043   0.00000   0.00000  -0.00000   1.80514
   A21        1.97629   0.00014   0.00000  -0.00000   0.00000   1.97629
   A22        1.81247  -0.00286   0.00000   0.00000   0.00000   1.81247
   A23        1.97493   0.00053   0.00000   0.00000  -0.00000   1.97493
   A24        2.01918   0.00120   0.00000  -0.00000   0.00000   2.01918
   A25        1.80349   0.00154   0.00000  -0.00000  -0.00000   1.80349
   A26        1.93796   0.00397   0.00000   0.00000  -0.00000   1.93796
   A27        1.94466  -0.00113   0.00000   0.00000   0.00000   1.94466
   A28        1.98661  -0.00311   0.00000   0.00000   0.00000   1.98661
   A29        1.95535  -0.00136   0.00000  -0.00000  -0.00000   1.95535
   A30        1.83900   0.00011   0.00000   0.00000  -0.00000   1.83900
   A31        1.90820  -0.00212   0.00000   0.00000  -0.00000   1.90820
   A32        1.78089  -0.00200   0.00000  -0.00000   0.00000   1.78089
   A33        1.96786   0.00245   0.00000  -0.00000  -0.00000   1.96786
   A34        1.77028  -0.00282   0.00000   0.00000  -0.00000   1.77028
   A35        1.98289   0.00045   0.00000  -0.00000   0.00000   1.98289
   A36        2.03370   0.00317   0.00000  -0.00000  -0.00000   2.03370
   A37        1.59593   0.00494   0.00000  -0.00000  -0.00000   1.59593
   A38        1.98993  -0.00220   0.00000  -0.00000   0.00000   1.98993
   A39        1.99052  -0.00262   0.00000   0.00000   0.00000   1.99052
   A40        2.01986  -0.00225   0.00000   0.00000   0.00000   2.01986
   A41        2.02067  -0.00332   0.00000   0.00000   0.00000   2.02067
   A42        1.84678   0.00465   0.00000   0.00000  -0.00000   1.84678
   A43        1.92475   0.00395   0.00000   0.02093   0.02068   1.94543
   A44        1.92462   0.00597   0.00000   0.03501   0.03469   1.95931
   A45        1.92468   0.00106   0.00000   0.00830   0.00821   1.93289
   A46        1.89625  -0.00423   0.00000  -0.02879  -0.02923   1.86702
   A47        1.89639  -0.00254   0.00000  -0.01505  -0.01506   1.88133
   A48        1.89649  -0.00453   0.00000  -0.02229  -0.02245   1.87404
   A49        1.90316   0.00381   0.00000   0.02320   0.02244   1.92560
   A50        1.90306   0.00123   0.00000   0.01034   0.00998   1.91304
   A51        1.90314   0.01614   0.00000   0.09034   0.08902   1.99217
   A52        1.91801  -0.00423   0.00000  -0.01650  -0.01621   1.90180
   A53        1.91806  -0.00846   0.00000  -0.05586  -0.05747   1.86059
   A54        1.91819  -0.00816   0.00000  -0.04953  -0.05043   1.86776
   A55        1.90329   0.00371   0.00000   0.02257   0.02191   1.92520
   A56        1.90323   0.01452   0.00000   0.08063   0.07960   1.98283
   A57        1.90318   0.00035   0.00000   0.00542   0.00524   1.90842
   A58        1.91795  -0.00751   0.00000  -0.05079  -0.05219   1.86576
   A59        1.91794  -0.00384   0.00000  -0.01377  -0.01352   1.90442
   A60        1.91803  -0.00693   0.00000  -0.04234  -0.04290   1.87513
   A61        1.94196   0.00157   0.00000   0.00963   0.00956   1.95152
   A62        1.94142   0.00021   0.00000   0.00236   0.00235   1.94377
   A63        1.94200   0.00386   0.00000   0.02100   0.02092   1.96291
   A64        1.87821  -0.00159   0.00000  -0.00637  -0.00636   1.87186
   A65        1.87854  -0.00242   0.00000  -0.01630  -0.01643   1.86212
   A66        1.87865  -0.00199   0.00000  -0.01242  -0.01245   1.86620
    D1       -0.03479   0.00130   0.00000   0.00000   0.00000  -0.03479
    D2        2.04989  -0.00085   0.00000   0.00000  -0.00000   2.04989
    D3       -2.17577  -0.00060   0.00000   0.00000   0.00000  -2.17577
    D4        2.07624   0.00074   0.00000   0.00000   0.00000   2.07624
    D5       -2.12227  -0.00140   0.00000   0.00000  -0.00000  -2.12227
    D6       -0.06474  -0.00116   0.00000   0.00000  -0.00000  -0.06474
    D7       -2.11745   0.00125   0.00000   0.00000   0.00000  -2.11745
    D8       -0.03277  -0.00089   0.00000   0.00000  -0.00000  -0.03277
    D9        2.02476  -0.00065   0.00000   0.00000   0.00000   2.02476
   D10        1.29437  -0.00173   0.00000   0.00000  -0.00000   1.29437
   D11       -0.60946   0.00117   0.00000   0.00000  -0.00000  -0.60946
   D12       -2.80823  -0.00010   0.00000   0.00000  -0.00000  -2.80823
   D13       -0.80785  -0.00297   0.00000   0.00000   0.00000  -0.80785
   D14       -2.71168  -0.00007   0.00000   0.00000   0.00000  -2.71168
   D15        1.37274  -0.00135   0.00000   0.00000   0.00000   1.37274
   D16       -2.91471  -0.00092   0.00000   0.00000  -0.00000  -2.91471
   D17        1.46464   0.00199   0.00000   0.00000  -0.00000   1.46464
   D18       -0.73413   0.00071   0.00000   0.00000   0.00000  -0.73413
   D19       -1.20428   0.00072   0.00000   0.00000   0.00000  -1.20428
   D20        0.66026  -0.00397   0.00000   0.00000   0.00000   0.66026
   D21        2.85535  -0.00005   0.00000   0.00000   0.00000   2.85535
   D22        3.00911  -0.00131   0.00000   0.00000   0.00000   3.00911
   D23       -1.40954  -0.00600   0.00000   0.00000  -0.00000  -1.40954
   D24        0.78555  -0.00208   0.00000   0.00000  -0.00000   0.78555
   D25        0.91488   0.00316   0.00000   0.00000   0.00000   0.91488
   D26        2.77942  -0.00153   0.00000   0.00000  -0.00000   2.77942
   D27       -1.30868   0.00239   0.00000   0.00000  -0.00000  -1.30868
   D28       -1.30649   0.00151   0.00000   0.00000   0.00000  -1.30649
   D29        0.59215   0.00033   0.00000   0.00000   0.00000   0.59215
   D30        2.79527   0.00012   0.00000   0.00000   0.00000   2.79527
   D31        0.83166   0.00059   0.00000   0.00000   0.00000   0.83166
   D32        2.73031  -0.00059   0.00000   0.00000  -0.00000   2.73031
   D33       -1.34976  -0.00079   0.00000   0.00000  -0.00000  -1.34976
   D34        2.92239   0.00034   0.00000   0.00000   0.00000   2.92239
   D35       -1.46215  -0.00084   0.00000   0.00000  -0.00000  -1.46215
   D36        0.74097  -0.00105   0.00000   0.00000  -0.00000   0.74097
   D37        0.05803  -0.00212   0.00000   0.00000  -0.00000   0.05803
   D38        2.19443  -0.00281   0.00000   0.00000   0.00000   2.19443
   D39       -2.04461  -0.00085   0.00000   0.00000   0.00000  -2.04461
   D40       -2.06135  -0.00032   0.00000   0.00000  -0.00000  -2.06135
   D41        0.07504  -0.00101   0.00000   0.00000   0.00000   0.07504
   D42        2.11920   0.00095   0.00000   0.00000  -0.00000   2.11920
   D43        2.11507   0.00069   0.00000   0.00000  -0.00000   2.11507
   D44       -2.03173   0.00000   0.00000   0.00000   0.00000  -2.03173
   D45        0.01242   0.00197   0.00000   0.00000  -0.00000   0.01242
   D46        0.96885  -0.00059   0.00000   0.00000  -0.00000   0.96885
   D47        3.04786  -0.00115   0.00000   0.00000   0.00000   3.04786
   D48       -1.11123   0.00129   0.00000   0.00000  -0.00000  -1.11123
   D49       -0.96837  -0.00072   0.00000   0.00000  -0.00000  -0.96837
   D50        1.11063  -0.00128   0.00000   0.00000   0.00000   1.11063
   D51       -3.04846   0.00117   0.00000   0.00000  -0.00000  -3.04846
   D52        3.13995   0.00001   0.00000   0.00000  -0.00000   3.13995
   D53       -1.06423  -0.00055   0.00000   0.00000   0.00000  -1.06423
   D54        1.05987   0.00190   0.00000   0.00000  -0.00000   1.05987
   D55        1.19138  -0.00026   0.00000   0.00000  -0.00000   1.19138
   D56       -0.68035   0.00384   0.00000   0.00000  -0.00000  -0.68035
   D57       -2.87674   0.00162   0.00000   0.00000  -0.00000  -2.87674
   D58       -0.91219  -0.00444   0.00000   0.00000   0.00000  -0.91219
   D59       -2.78392  -0.00033   0.00000   0.00000   0.00000  -2.78392
   D60        1.30287  -0.00255   0.00000   0.00000   0.00000   1.30287
   D61       -2.99647  -0.00137   0.00000   0.00000   0.00000  -2.99647
   D62        1.41499   0.00274   0.00000   0.00000  -0.00000   1.41499
   D63       -0.78140   0.00052   0.00000   0.00000  -0.00000  -0.78140
   D64        0.18973  -0.00066   0.00000   0.00000  -0.00000   0.18973
   D65       -1.90420   0.00015   0.00000   0.00000   0.00000  -1.90420
   D66        2.28447  -0.00007   0.00000   0.00000   0.00000   2.28447
   D67        2.21603   0.00199   0.00000   0.00000  -0.00000   2.21603
   D68        0.12210   0.00281   0.00000   0.00000   0.00000   0.12210
   D69       -1.97242   0.00259   0.00000   0.00000   0.00000  -1.97242
   D70       -1.91800  -0.00155   0.00000   0.00000  -0.00000  -1.91800
   D71        2.27125  -0.00074   0.00000   0.00000   0.00000   2.27125
   D72        0.17674  -0.00096   0.00000   0.00000   0.00000   0.17674
   D73       -0.98196   0.00280   0.00000   0.00000   0.00000  -0.98196
   D74       -3.03529   0.00320   0.00000   0.00000   0.00000  -3.03529
   D75        1.07227   0.00162   0.00000   0.00000   0.00000   1.07227
   D76        0.98778  -0.00098   0.00000   0.00000  -0.00000   0.98778
   D77       -1.06555  -0.00058   0.00000   0.00000  -0.00000  -1.06555
   D78        3.04201  -0.00216   0.00000   0.00000  -0.00000   3.04201
   D79       -3.13312  -0.00066   0.00000   0.00000   0.00000  -3.13312
   D80        1.09674  -0.00026   0.00000   0.00000   0.00000   1.09674
   D81       -1.07890  -0.00184   0.00000   0.00000   0.00000  -1.07890
   D82        3.14155  -0.00027   0.00000   0.00000   0.00000   3.14155
   D83        1.04731  -0.00136   0.00000   0.00000  -0.00000   1.04731
[...]
 Alpha virt. eigenvalues --    1.19812   1.25803   1.29080   1.32860   1.34563
 Alpha virt. eigenvalues --    1.39999   1.42701   1.44788   1.45205   1.45712
 Alpha virt. eigenvalues --    1.48041   1.50978   1.53071   1.55846   1.57727
 Alpha virt. eigenvalues --    1.59041   1.60139   1.63355   1.65196   1.65786
 Alpha virt. eigenvalues --    1.68283   1.69812   1.71111   1.74581   1.75905
 Alpha virt. eigenvalues --    1.76523   1.77677   1.78789   1.80745   1.81572
 Alpha virt. eigenvalues --    1.82884   1.84518   1.85792   1.88271   1.88830
 Alpha virt. eigenvalues --    1.90211   1.90431   1.92169   1.92668   1.93885
 Alpha virt. eigenvalues --    1.95441   1.97725   1.99658   2.00651   2.00809
 Alpha virt. eigenvalues --    2.02098   2.02349   2.03727   2.04558   2.05184
 Alpha virt. eigenvalues --    2.07651   2.08412   2.12682   2.14333   2.15100
 Alpha virt. eigenvalues --    2.17907   2.20249   2.20971   2.22593   2.24137
 Alpha virt. eigenvalues --    2.26973   2.27083   2.28079   2.30565   2.32034
 Alpha virt. eigenvalues --    2.33216   2.34812   2.37244   2.39907   2.40578
 Alpha virt. eigenvalues --    2.43052   2.44801   2.46697   2.47863   2.51453
 Alpha virt. eigenvalues --    2.51879   2.53566   2.54794   2.56994   2.58081
 Alpha virt. eigenvalues --    2.58746   2.59142   2.61666   2.62785   2.64622
 Alpha virt. eigenvalues --    2.66683   2.68050   2.68339   2.69314   2.71480
 Alpha virt. eigenvalues --    2.72773   2.75181   2.76338   2.76954   2.79261
 Alpha virt. eigenvalues --    2.79567   2.84050   2.85096   2.86863   2.90517
 Alpha virt. eigenvalues --    2.97774   2.98858   3.07332   3.09406   3.11577
 Alpha virt. eigenvalues --    3.13104   3.16684   3.17482   3.19252   3.23600
 Alpha virt. eigenvalues --    3.25825   3.27045   3.28986   3.31406   3.32294
 Alpha virt. eigenvalues --    3.33314   3.34230   3.35775   3.37302   3.41391
 Alpha virt. eigenvalues --    3.43639   3.91306   4.18898   4.32452   4.37018
 Alpha virt. eigenvalues --    4.38899   4.42234   4.45506   4.59312   4.69250
 Alpha virt. eigenvalues --    4.71997   4.81174
          Condensed to atoms (all electrons):
               1          2          3          4          5          6
     1  C    4.991131   0.330866  -0.043497   0.373408  -0.013478  -0.061808
     2  C    0.330866   5.066425  -0.013489  -0.071638  -0.040778   0.376328
     3  C   -0.043497  -0.013489   5.060419   0.364837   0.319724  -0.072967
     4  C    0.373408  -0.071638   0.364837   4.982514  -0.071546  -0.041187
     5  C   -0.013478  -0.040778   0.319724  -0.071546   5.185912   0.352430
     6  C   -0.061808   0.376328  -0.072967  -0.041187   0.352430   5.016301
     7  C   -0.059828  -0.065949  -0.048736   0.348949  -0.060167   0.344284
     8  C    0.006308  -0.056923   0.006444   0.005912  -0.057506   0.368122
     9  C    0.005250   0.005306  -0.006633  -0.048816  -0.004133  -0.048668
    10  C   -0.005753  -0.007478   0.005084  -0.046968   0.005104  -0.045174
    11  N    0.001723  -0.014992  -0.040345   0.002964   0.128700  -0.028172
    12  H    0.380191  -0.033433  -0.010089  -0.035025   0.000539   0.002135
    13  H    0.389806  -0.028187   0.004646  -0.029609   0.000039   0.001261
    14  H   -0.027418   0.391992  -0.000179   0.001626   0.004566  -0.028031
    15  H   -0.034399   0.360655   0.000789   0.003391  -0.012240  -0.037859
    16  H   -0.009051   0.000098   0.375217  -0.027242  -0.039536   0.001563
    17  H    0.004681   0.000012   0.380240  -0.027334  -0.025557   0.002019
    18  H   -0.033911   0.006100  -0.036397   0.385738   0.006377   0.005143
    19  H   -0.000300   0.004366  -0.029376   0.002092   0.391632  -0.030910
    20  H   -0.000238   0.005069   0.000023   0.000209  -0.005359  -0.027952
    21  H   -0.000013  -0.005411  -0.000085  -0.000248  -0.005837  -0.030614
    22  H   -0.000005  -0.004544  -0.000202   0.000312   0.004939  -0.023325
    23  H   -0.000173  -0.000035   0.000080   0.004736  -0.000612  -0.003597
    24  H    0.000007  -0.000126  -0.000406  -0.005465  -0.000034   0.005145
    25  H    0.000024   0.000016   0.000974  -0.004796   0.002579  -0.008535
    26  H    0.000055  -0.000398  -0.000173   0.004786  -0.000040  -0.004088
    27  H    0.001332   0.002387   0.000013  -0.004847   0.000066  -0.007667
    28  H   -0.000556   0.000088   0.000014  -0.005409  -0.000117   0.005028
    29  H   -0.000037  -0.000068  -0.002964  -0.000150  -0.019038   0.002278
    30  H   -0.001199   0.009561   0.002882  -0.000031  -0.027932  -0.005650
    31  H   -0.000035   0.000509   0.002627  -0.000104  -0.015266   0.000908
               7          8          9         10         11         12
     1  C   -0.059828   0.006308   0.005250  -0.005753   0.001723   0.380191
     2  C   -0.065949  -0.056923   0.005306  -0.007478  -0.014992  -0.033433
     3  C   -0.048736   0.006444  -0.006633   0.005084  -0.040345  -0.010089
     4  C    0.348949   0.005912  -0.048816  -0.046968   0.002964  -0.035025
     5  C   -0.060167  -0.057506  -0.004133   0.005104   0.128700   0.000539
     6  C    0.344284   0.368122  -0.048668  -0.045174  -0.028172   0.002135
     7  C    4.983337  -0.038565   0.373884   0.389299   0.003142   0.005035
     8  C   -0.038565   4.970456  -0.002187  -0.003280   0.000617  -0.000124
     9  C    0.373884  -0.002187   4.980083  -0.060741   0.000242  -0.000148
    10  C    0.389299  -0.003280  -0.060741   4.954073  -0.000062   0.000184
    11  N    0.003142   0.000617   0.000242  -0.000062   6.578153  -0.000010
    12  H    0.005035  -0.000124  -0.000148   0.000184  -0.000010   0.616381
    13  H   -0.002179  -0.000133  -0.000027   0.001957  -0.000014  -0.029486
    14  H   -0.003094  -0.004129   0.000008   0.000652   0.000214   0.003590
    15  H    0.005399  -0.000403  -0.000161   0.000418  -0.005429  -0.007961
    16  H    0.004794  -0.000116   0.000157  -0.000125  -0.009782   0.006178
    17  H   -0.002851  -0.000140   0.001962  -0.000020   0.002836   0.000210
    18  H   -0.029707  -0.000192  -0.001803  -0.002089  -0.000060   0.000575
    19  H   -0.002501  -0.003727   0.001982   0.000009  -0.042153  -0.000001
    20  H   -0.006140   0.378871   0.002251  -0.000164  -0.000147   0.000004
    21  H    0.004984   0.374678  -0.000048  -0.000020   0.000922  -0.000006
    22  H   -0.006439   0.386703  -0.000174   0.002554  -0.000053   0.000002
    23  H   -0.027649   0.001256   0.382627  -0.006869  -0.000007   0.000003
    24  H   -0.027270   0.000003   0.384286  -0.003336  -0.000002  -0.000001
    25  H   -0.032612  -0.000132   0.371637   0.005235   0.000061   0.000001
    26  H   -0.028496   0.001276  -0.007259   0.382021   0.000000  -0.000002
    27  H   -0.029725  -0.000295   0.005148   0.378265  -0.000001  -0.000005
    28  H   -0.028505   0.000033  -0.003754   0.384423   0.000001  -0.000012
    29  H    0.000023  -0.000049  -0.000004   0.000001   0.327739   0.000251
    30  H    0.000422   0.001783  -0.000008  -0.000011   0.316333  -0.000287
    31  H   -0.000055   0.000119   0.000005   0.000001   0.332055   0.000002
              13         14         15         16         17         18
     1  C    0.389806  -0.027418  -0.034399  -0.009051   0.004681  -0.033911
     2  C   -0.028187   0.391992   0.360655   0.000098   0.000012   0.006100
     3  C    0.004646  -0.000179   0.000789   0.375217   0.380240  -0.036397
     4  C   -0.029609   0.001626   0.003391  -0.027242  -0.027334   0.385738
     5  C    0.000039   0.004566  -0.012240  -0.039536  -0.025557   0.006377
     6  C    0.001261  -0.028031  -0.037859   0.001563   0.002019   0.005143
     7  C   -0.002179  -0.003094   0.005399   0.004794  -0.002851  -0.029707
     8  C   -0.000133  -0.004129  -0.000403  -0.000116  -0.000140  -0.000192
     9  C   -0.000027   0.000008  -0.000161   0.000157   0.001962  -0.001803
    10  C    0.001957   0.000652   0.000418  -0.000125  -0.000020  -0.002089
    11  N   -0.000014   0.000214  -0.005429  -0.009782   0.002836  -0.000060
    12  H   -0.029486   0.003590  -0.007961   0.006178   0.000210   0.000575
    13  H    0.562661  -0.011343   0.003173   0.000141  -0.000190  -0.003477
    14  H   -0.011343   0.544015  -0.029205   0.000011   0.000013  -0.000135
    15  H    0.003173  -0.029205   0.666904  -0.000143   0.000001  -0.000112
    16  H    0.000141   0.000011  -0.000143   0.601481  -0.028376   0.000120
    17  H   -0.000190   0.000013   0.000001  -0.028376   0.550727  -0.003114
    18  H   -0.003477  -0.000135  -0.000112   0.000120  -0.003114   0.588993
    19  H    0.000017  -0.000134   0.000010   0.003283  -0.010145  -0.000127
    20  H    0.000004   0.000071  -0.000156   0.000002  -0.000016  -0.000001
    21  H    0.000001  -0.000304   0.001687  -0.000004   0.000001   0.000003
    22  H   -0.000019   0.003604  -0.000114   0.000004   0.000004  -0.000001
    23  H    0.000000  -0.000005   0.000000  -0.000000  -0.000091  -0.000041
    24  H   -0.000006  -0.000001   0.000003  -0.000013   0.000330   0.002480
    25  H   -0.000002   0.000002  -0.000003  -0.000014   0.001549  -0.000156
    26  H   -0.000058   0.000112  -0.000012   0.000003  -0.000000  -0.000047
    27  H    0.001131   0.002308  -0.000022   0.000000  -0.000002  -0.000152
    28  H    0.000313  -0.000104  -0.000003  -0.000000  -0.000007   0.002488
    29  H   -0.000001   0.000010  -0.000256   0.010084   0.000062  -0.000012
    30  H    0.000051  -0.000952   0.019004   0.000398  -0.000164  -0.000001
    31  H    0.000000  -0.000007   0.000204   0.000281  -0.000165   0.000002
              19         20         21         22         23         24
     1  C   -0.000300  -0.000238  -0.000013  -0.000005  -0.000173   0.000007
     2  C    0.004366   0.005069  -0.005411  -0.004544  -0.000035  -0.000126
     3  C   -0.029376   0.000023  -0.000085  -0.000202   0.000080  -0.000406
     4  C    0.002092   0.000209  -0.000248   0.000312   0.004736  -0.005465
     5  C    0.391632  -0.005359  -0.005837   0.004939  -0.000612  -0.000034
     6  C   -0.030910  -0.027952  -0.030614  -0.023325  -0.003597   0.005145
     7  C   -0.002501  -0.006140   0.004984  -0.006439  -0.027649  -0.027270
     8  C   -0.003727   0.378871   0.374678   0.386703   0.001256   0.000003
     9  C    0.001982   0.002251  -0.000048  -0.000174   0.382627   0.384286
    10  C    0.000009  -0.000164  -0.000020   0.002554  -0.006869  -0.003336
    11  N   -0.042153  -0.000147   0.000922  -0.000053  -0.000007  -0.000002
    12  H   -0.000001   0.000004  -0.000006   0.000002   0.000003  -0.000001
    13  H    0.000017   0.000004   0.000001  -0.000019   0.000000  -0.000006
    14  H   -0.000134   0.000071  -0.000304   0.003604  -0.000005  -0.000001
    15  H    0.000010  -0.000156   0.001687  -0.000114   0.000000   0.000003
    16  H    0.003283   0.000002  -0.000004   0.000004  -0.000000  -0.000013
    17  H   -0.010145  -0.000016   0.000001   0.000004  -0.000091   0.000330
    18  H   -0.000127  -0.000001   0.000003  -0.000001  -0.000041   0.002480
    19  H    0.544208   0.004482  -0.000390  -0.000009   0.000121  -0.000188
    20  H    0.004482   0.582394  -0.034892  -0.025214   0.001457  -0.000060
    21  H   -0.000390  -0.034892   0.629733  -0.027772  -0.000051   0.000001
    22  H   -0.000009  -0.025214  -0.027772   0.539290   0.000153  -0.000012
    23  H    0.000121   0.001457  -0.000051   0.000153   0.570189  -0.026019
    24  H   -0.000188  -0.000060   0.000001  -0.000012  -0.026019   0.558326
    25  H    0.002426   0.000081  -0.000012   0.000020  -0.031816  -0.029239
    26  H   -0.000006   0.000122  -0.000051   0.001795   0.004681  -0.000312
    27  H    0.000000   0.000016  -0.000015   0.000173   0.000094  -0.000037
    28  H   -0.000001  -0.000008   0.000001  -0.000082  -0.000294   0.002842
    29  H    0.002455  -0.000007   0.000006   0.000004   0.000000  -0.000000
    30  H    0.003577  -0.000012   0.002361  -0.000184  -0.000000   0.000000
    31  H   -0.004947   0.000053  -0.000003  -0.000002  -0.000000  -0.000000
              25         26         27         28         29         30
     1  C    0.000024   0.000055   0.001332  -0.000556  -0.000037  -0.001199
     2  C    0.000016  -0.000398   0.002387   0.000088  -0.000068   0.009561
     3  C    0.000974  -0.000173   0.000013   0.000014  -0.002964   0.002882
     4  C   -0.004796   0.004786  -0.004847  -0.005409  -0.000150  -0.000031
     5  C    0.002579  -0.000040   0.000066  -0.000117  -0.019038  -0.027932
     6  C   -0.008535  -0.004088  -0.007667   0.005028   0.002278  -0.005650
     7  C   -0.032612  -0.028496  -0.029725  -0.028505   0.000023   0.000422
     8  C   -0.000132   0.001276  -0.000295   0.000033  -0.000049   0.001783
     9  C    0.371637  -0.007259   0.005148  -0.003754  -0.000004  -0.000008
    10  C    0.005235   0.382021   0.378265   0.384423   0.000001  -0.000011
    11  N    0.000061   0.000000  -0.000001   0.000001   0.327739   0.316333
    12  H    0.000001  -0.000002  -0.000005  -0.000012   0.000251  -0.000287
    13  H   -0.000002  -0.000058   0.001131   0.000313  -0.000001   0.000051
    14  H    0.000002   0.000112   0.002308  -0.000104   0.000010  -0.000952
    15  H   -0.000003  -0.000012  -0.000022  -0.000003  -0.000256   0.019004
    16  H   -0.000014   0.000003   0.000000  -0.000000   0.010084   0.000398
    17  H    0.001549  -0.000000  -0.000002  -0.000007   0.000062  -0.000164
    18  H   -0.000156  -0.000047  -0.000152   0.002488  -0.000012  -0.000001
    19  H    0.002426  -0.000006   0.000000  -0.000001   0.002455   0.003577
    20  H    0.000081   0.000122   0.000016  -0.000008  -0.000007  -0.000012
    21  H   -0.000012  -0.000051  -0.000015   0.000001   0.000006   0.002361
    22  H    0.000020   0.001795   0.000173  -0.000082   0.000004  -0.000184
    23  H   -0.031816   0.004681   0.000094  -0.000294   0.000000  -0.000000
    24  H   -0.029239  -0.000312  -0.000037   0.002842  -0.000000   0.000000
    25  H    0.632164   0.000106  -0.000220  -0.000031   0.000002  -0.000010
    26  H    0.000106   0.575393  -0.030582  -0.026483   0.000000   0.000000
    27  H   -0.000220  -0.030582   0.598239  -0.028005   0.000000   0.000001
    28  H   -0.000031  -0.026483  -0.028005   0.561567  -0.000000   0.000000
    29  H    0.000002   0.000000   0.000000  -0.000000   0.352627  -0.015696
    30  H   -0.000010   0.000000   0.000001   0.000000  -0.015696   0.357478
    31  H    0.000009   0.000000   0.000000  -0.000000  -0.015065  -0.013427
              31
     1  C   -0.000035
     2  C    0.000509
     3  C    0.002627
     4  C   -0.000104
     5  C   -0.015266
     6  C    0.000908
     7  C   -0.000055
     8  C    0.000119
     9  C    0.000005
    10  C    0.000001
    11  N    0.332055
    12  H    0.000002
    13  H    0.000000
    14  H   -0.000007
    15  H    0.000204
    16  H    0.000281
    17  H   -0.000165
    18  H    0.000002
    19  H   -0.004947
    20  H    0.000053
    21  H   -0.000003
    22  H   -0.000002
    23  H   -0.000000
    24  H   -0.000000
    25  H    0.000009
    26  H    0.000000
    27  H    0.000000
    28  H   -0.000000
    29  H   -0.015065
    30  H   -0.013427
    31  H    0.348368
 Mulliken charges:
               1
     1  C   -0.193082
     2  C   -0.216328
     3  C   -0.218478
     4  C   -0.061059
     5  C   -0.003429
     6  C    0.023260
     7  C    0.036918
     8  C   -0.334682
     9  C   -0.330265
    10  C   -0.327192
    11  N   -0.554470
    12  H    0.101311
    13  H    0.139530
    14  H    0.152247
    15  H    0.066842
    16  H    0.110589
    17  H    0.153526
    18  H    0.113516
    19  H    0.164258
    20  H    0.125257
    21  H    0.091395
    22  H    0.148595
    23  H    0.131862
    24  H    0.139102
    25  H    0.090695
    26  H    0.127657
    27  H    0.112400
    28  H    0.136575
    29  H    0.357805
    30  H    0.351713
    31  H    0.363933
 Sum of Mulliken charges =   1.00000
 Mulliken charges with hydrogens summed into heavy atoms:
               1
     1  C    0.047759
     2  C    0.002761
     3  C    0.045637
     4  C    0.052457
     5  C    0.160829
     6  C    0.023260
     7  C    0.036918
     8  C    0.030566
     9  C    0.031394
    10  C    0.049440
    11  N    0.518980
 Electronic spatial extent (au):  <R**2>=           1586.7171
 Charge=              1.0000 electrons
 Dipole moment (field-independent basis, Debye):
    X=             -8.0452    Y=              0.8545    Z=              0.7809  Tot=              8.1281
 Quadrupole moment (field-independent basis, Debye-Ang):
   XX=            -34.5537   YY=            -62.6135   ZZ=            -62.7497
   XY=             -2.9394   XZ=             -2.4611   YZ=              0.0548
 Traceless Quadrupole moment (field-independent basis, Debye-Ang):
   XX=             18.7519   YY=             -9.3079   ZZ=             -9.4441
   XY=             -2.9394   XZ=             -2.4611   YZ=              0.0548
 Octapole moment (field-independent basis, Debye-Ang**2):
  XXX=            -97.1626  YYY=              2.3112  ZZZ=              1.5662  XYY=             -8.5454
  XXY=              8.7869  XXZ=              7.8153  XZZ=             -6.1830  YZZ=              1.1092
  YYZ=              2.1848  XYZ=             -1.7472
 Hexadecapole moment (field-independent basis, Debye-Ang**3):
 XXXX=           -605.4891 YYYY=           -604.3834 ZZZZ=           -526.9565 XXXY=            -35.8833
 XXXZ=            -23.9436 YYYX=             -4.5787 YYYZ=              0.3330 ZZZX=             -9.2114
 ZZZY=             -0.8257 XXYY=           -221.3433 XXZZ=           -223.5197 YYZZ=           -187.1737
 XXYZ=              2.7538 YYXZ=             -6.1055 ZZXY=             -7.3614
 N-N= 7.256703192557D+02 E-N=-2.472566146524D+03  KE= 4.432309737149D+02
 1\1\GINC-CPU196\FOpt\RB3LYP\6-31G(d,p)\C10H20N1(1+)\FEBRERMA\05-Feb-20
 24\0\\# B3LYP/6-31G** opt=Modredundant\\G5\\1,1\C,7.6105273215,38.9715
 600439,29.9368936981\C,8.5536170216,40.11054219,30.4441877295\C,8.9830
 839513,37.2608833677,31.0813885211\C,8.582274866,37.8060023016,29.6858
 866798\C,9.9708696376,38.3516379818,31.5968178077\C,9.9421393309,39.42
 64698172,30.4658826631\C,9.882901367,38.5197152512,29.1736622354\C,11.
 0957665019,40.4304665704,30.54445593\C,11.0804423215,37.5695426801,28.
 96680177\C,9.7047971104,39.2658581084,27.8406592638\N,9.5346103181,38.
 8863694145,32.9753444418\H,6.8410039649,38.7236293465,30.6742448237\H,
 7.0991501105,39.2710683835,29.0198479269\H,8.5317984989,40.9579867979,
 29.7590833184\H,8.2362695998,40.5032472015,31.4213598452\H,8.114404698
 3,37.1066792885,31.732178787\H,9.4925536739,36.298969145,30.987361991\
 H,8.1724609696,37.0376864517,29.0260181087\H,10.9694971923,37.94435359
 01,31.7480997292\H,12.0690254849,39.9274745783,30.5588036388\H,11.0466
 021451,41.0532636953,31.447405226\H,11.0832103932,41.1039326779,29.684
 2754993\H,11.9555743427,38.1201689236,28.6105860109\H,10.8282264261,36
 .8034012373,28.2283123889\H,11.4008148109,37.0395035887,29.8694931581\
 H,10.6405798788,39.7417983927,27.5345176242\H,8.9518109939,40.05652289
 67,27.8707034368\H,9.3985950857,38.561678052,27.0620111763\H,8.7897434
 531,38.3098794681,33.3777968578\H,9.1823870824,39.8479107766,32.898313
 4914\H,10.3092614474,38.8943057812,33.6451092209\\Version=ES64L-G16Rev
 A.03\State=1-A\HF=-447.6531369\RMSD=7.600e-09\RMSF=4.375e-03\Dipole=-0
 .0119237,0.0275008,3.1977016\Quadrupole=-7.2795734,-7.0354719,14.31504
 54,0.0819585,-0.2596607,0.3535679\PG=C01 [X(C10H20N1)]\\@


 THEORY:  SUPPOSITION WHICH HAS SCIENTIFIC BASIS,
          BUT NOT EXPERIMENTALLY PROVEN.
 FACT:    A THEORY WHICH HAS BEEN PROVEN BY ENOUGH 
          MONEY TO PAY FOR THE EXPERIMENTS.

                          --  THE WIZARD OF ID
 Job cpu time:       0 days  0 hours 27 minutes 33.3 seconds.
 Elapsed time:       0 days  0 hours  3 minutes 29.4 seconds.
 File lengths (MBytes):  RWF=     50 Int=      0 D2E=      0 Chk=      7 Scr=      1
 Normal termination of Gaussian 16 at Mon Feb  5 15:25:52 2024.
