 Entering Gaussian System, Link 0=g16
 Initial command:
 /opt/ebsofts/Gaussian/g16/l1.exe "/scratch/Gau-129292.inp" -scrdir="/scratch/"
 Entering Link 1 = /opt/ebsofts/Gaussian/g16/l1.exe PID=    129298.
  
 Copyright (c) 1988,1990,1992,1993,1995,1998,2003,2009,2016,
            Gaussian, Inc.  All Rights Reserved.
  
 This is part of the Gaussian(R) 16 program.  It is based on
 the Gaussian(R) 09 system (copyright 2009, Gaussian, Inc.),
 the Gaussian(R) 03 system (copyright 2003, Gaussian, Inc.),
 the Gaussian(R) 98 system (copyright 1998, Gaussian, Inc.),
 the Gaussian(R) 94 system (copyright 1995, Gaussian, Inc.),
 the Gaussian 92(TM) system (copyright 1992, Gaussian, Inc.),
 the Gaussian 90(TM) system (copyright 1990, Gaussian, Inc.),
 the Gaussian 88(TM) system (copyright 1988, Gaussian, Inc.),
 the Gaussian 86(TM) system (copyright 1986, Carnegie Mellon
 University), and the Gaussian 82(TM) system (copyright 1983,
 Carnegie Mellon University). Gaussian is a federally registered
 trademark of Gaussian, Inc.
  
 This software contains proprietary and confidential information,
 including trade secrets, belonging to Gaussian, Inc.
  
 This software is provided under written license and may be
 used, copied, transmitted, or stored only in accord with that
 written license.
  
 The following legend is applicable only to US Government
 contracts under FAR:
  
                    RESTRICTED RIGHTS LEGEND
  
 Use, reproduction and disclosure by the US Government is
 subject to restrictions as set forth in subparagraphs (a)
 and (c) of the Commercial Computer Software - Restricted
 Rights clause in FAR 52.227-19.
  
 Gaussian, Inc.
 340 Quinnipiac St., Bldg. 40, Wallingford CT 06492
  
  
 ---------------------------------------------------------------
 Warning -- This program may not be used in any manner that
 competes with the business of Gaussian, Inc. or will provide
 assistance to any competitor of Gaussian, Inc.  The licensee
 of this program is prohibited from giving any competitor of
 Gaussian, Inc. access to this program.  By using this program,
 the user acknowledges that Gaussian, Inc. is engaged in the
 business of creating and licensing software in the field of
 computational chemistry and represents and warrants to the
 licensee that it is not a competitor of Gaussian, Inc. and that
 it will not use this program in any manner prohibited above.
 ---------------------------------------------------------------
  

 Cite this work as:
 Gaussian 16, Revision A.03,
 M. J. Frisch, G. W. Trucks, H. B. Schlegel, G. E. Scuseria, 
 M. A. Robb, J. R. Cheeseman, G. Scalmani, V. Barone, 
 G. A. Petersson, H. Nakatsuji, X. Li, M. Caricato, A. V. Marenich, 
 J. Bloino, B. G. Janesko, R. Gomperts, B. Mennucci, H. P. Hratchian, 
 J. V. Ortiz, A. F. Izmaylov, J. L. Sonnenberg, D. Williams-Young, 
 F. Ding, F. Lipparini, F. Egidi, J. Goings, B. Peng, A. Petrone, 
 T. Henderson, D. Ranasinghe, V. G. Zakrzewski, J. Gao, N. Rega, 
 G. Zheng, W. Liang, M. Hada, M. Ehara, K. Toyota, R. Fukuda, 
 J. Hasegawa, M. Ishida, T. Nakajima, Y. Honda, O. Kitao, H. Nakai, 
 T. Vreven, K. Throssell, J. A. Montgomery, Jr., J. E. Peralta, 
 F. Ogliaro, M. J. Bearpark, J. J. Heyd, E. N. Brothers, K. N. Kudin, 
 V. N. Staroverov, T. A. Keith, R. Kobayashi, J. Normand, 
 K. Raghavachari, A. P. Rendell, J. C. Burant, S. S. Iyengar, 
 J. Tomasi, M. Cossi, J. M. Millam, M. Klene, C. Adamo, R. Cammi, 
 J. W. Ochterski, R. L. Martin, K. Morokuma, O. Farkas, 
 J. B. Foresman, and D. J. Fox, Gaussian, Inc., Wallingford CT, 2016.
 
 ******************************************
 Gaussian 16:  ES64L-G16RevA.03 25-Dec-2016
                 5-Feb-2024 
 ******************************************
 %Chk=G5.chk
 %nprocshared=8
 Will use up to    8 processors via shared memory.
 %mem=1GB
 ----------------------------------------------------------------------
 # HF/6-31G** SCRF=(Solvent=Water) POP=MK iop(6/50=1) geom=allcheck gue
 ss=read
 ----------------------------------------------------------------------
 1/29=7,38=1,172=1/1;
 2/12=2,40=1/2;
 3/5=1,6=6,7=101,11=9,14=-4,25=1,30=1,70=2201,72=1,116=-2/1,2,3;
 4/5=1/1;
 5/5=2,38=6,53=1/2;
 6/7=2,8=2,9=2,10=2,15=8,20=1,28=1,50=1/1,2;
 99/5=1,9=1/99;
 Structure from the checkpoint file:  "G5.chk"
 --
 G5
 --
 Charge =  1 Multiplicity = 1
 Redundant internal coordinates found in file.  (old form).
 C,0,7.6105273215,38.9715600439,29.9368936981
 C,0,8.5536170216,40.11054219,30.4441877295
 C,0,8.9830839513,37.2608833677,31.0813885211
 C,0,8.582274866,37.8060023016,29.6858866798
 C,0,9.9708696376,38.3516379818,31.5968178077
 C,0,9.9421393309,39.4264698172,30.4658826631
 C,0,9.882901367,38.5197152512,29.1736622354
 C,0,11.0957665019,40.4304665704,30.54445593
 C,0,11.0804423215,37.5695426801,28.96680177
 C,0,9.7047971104,39.2658581084,27.8406592638
 N,0,9.5346103181,38.8863694145,32.9753444418
 H,0,6.8410039649,38.7236293465,30.6742448237
 H,0,7.0991501105,39.2710683835,29.0198479269
 H,0,8.5317984989,40.9579867979,29.7590833184
 H,0,8.2362695998,40.5032472015,31.4213598452
 H,0,8.1144046983,37.1066792885,31.732178787
 H,0,9.4925536739,36.298969145,30.987361991
 H,0,8.1724609696,37.0376864517,29.0260181087
 H,0,10.9694971923,37.9443535901,31.7480997292
 H,0,12.0690254849,39.9274745783,30.5588036388
 H,0,11.0466021451,41.0532636953,31.447405226
 H,0,11.0832103932,41.1039326779,29.6842754993
 H,0,11.9555743427,38.1201689236,28.6105860109
 H,0,10.8282264261,36.8034012373,28.2283123889
 H,0,11.4008148109,37.0395035887,29.8694931581
 H,0,10.6405798788,39.7417983927,27.5345176242
 H,0,8.9518109939,40.0565228967,27.8707034368
 H,0,9.3985950857,38.561678052,27.0620111763
 H,0,8.7897434531,38.3098794681,33.3777968578
 H,0,9.1823870824,39.8479107766,32.8983134914
 H,0,10.3092614474,38.8943057812,33.6451092209
 Recover connectivity data from disk.
                           ----------------------------
                           !    Current Parameters    !
                           ! (Angstroms and Degrees)  !
 --------------------------                            --------------------------
 ! Name  Definition              Value                                          !
 --------------------------------------------------------------------------------
 ! R1    R(1,2)                  1.5633                                         !
 ! R2    R(1,4)                  1.5381                                         !
 ! R3    R(1,12)                 1.0942                                         !
 ! R4    R(1,13)                 1.0919                                         !
 ! R5    R(2,6)                  1.548                                          !
 ! R6    R(2,14)                 1.09                                           !
 ! R7    R(2,15)                 1.0999                                         !
 ! R8    R(3,4)                  1.5509                                         !
 ! R9    R(3,5)                  1.5592                                         !
 ! R10   R(3,16)                 1.0963                                         !
 ! R11   R(3,17)                 1.0926                                         !
 ! R12   R(4,7)                  1.5695                                         !
 ! R13   R(4,18)                 1.0926                                         !
 ! R14   R(5,6)                  1.5605                                         !
 ! R15   R(5,11)                 1.5416                                         !
 ! R16   R(5,19)                 1.089                                          !
 ! R17   R(6,7)                  1.5797                                         !
 ! R18   R(6,8)                  1.5314                                         !
 ! R19   R(7,9)                  1.5426                                         !
 ! R20   R(7,10)                 1.538                                          !
 ! R21   R(8,20)                 1.0956                                         !
 ! R22   R(8,21)                 1.098                                          !
 ! R23   R(8,22)                 1.0925                                         !
 ! R24   R(9,23)                 1.0936                                         !
 ! R25   R(9,24)                 1.0936                                         !
 ! R26   R(9,25)                 1.0947                                         !
 ! R27   R(10,26)                1.0936                                         !
 ! R28   R(10,27)                1.0923                                         !
 ! R29   R(10,28)                1.0936                                         !
 ! R30   R(11,29)                1.0243                                         !
 ! R31   R(11,30)                1.0269                                         !
 ! R32   R(11,31)                1.0241                                         !
 ! A1    A(2,1,4)              102.9393                                         !
 ! A2    A(2,1,12)             111.7562                                         !
 ! A3    A(2,1,13)             110.807                                          !
 ! A4    A(4,1,12)             112.493                                          !
 ! A5    A(4,1,13)             111.5119                                         !
 ! A6    A(12,1,13)            107.3822                                         !
 ! A7    A(1,2,6)              102.926                                          !
 ! A8    A(1,2,14)             110.5126                                         !
 ! A9    A(1,2,15)             111.9843                                         !
 ! A10   A(6,2,14)             111.7366                                         !
 ! A11   A(6,2,15)             113.8356                                         !
 ! A12   A(14,2,15)            105.9651                                         !
 ! A13   A(4,3,5)              102.4326                                         !
 ! A14   A(4,3,16)             112.2596                                         !
 ! A15   A(4,3,17)             110.6424                                         !
 ! A16   A(5,3,16)             113.8372                                         !
 ! A17   A(5,3,17)             110.4226                                         !
 ! A18   A(16,3,17)            107.2616                                         !
 ! A19   A(1,4,3)              106.4266                                         !
 ! A20   A(1,4,7)              103.4272                                         !
 ! A21   A(1,4,18)             113.2333                                         !
 ! A22   A(3,4,7)              103.8471                                         !
 ! A23   A(3,4,18)             113.155                                          !
 ! A24   A(7,4,18)             115.6902                                         !
 ! A25   A(3,5,6)              103.3325                                         !
 ! A26   A(3,5,11)             111.037                                          !
 ! A27   A(3,5,19)             111.4209                                         !
 ! A28   A(6,5,11)             113.8246                                         !
 ! A29   A(6,5,19)             112.0335                                         !
 ! A30   A(11,5,19)            105.3667                                         !
 ! A31   A(2,6,5)              109.332                                          !
 ! A32   A(2,6,7)              102.0372                                         !
 ! A33   A(2,6,8)              112.7501                                         !
 ! A34   A(5,6,7)              101.4298                                         !
 ! A35   A(5,6,8)              113.6112                                         !
 ! A36   A(7,6,8)              116.5223                                         !
 ! A37   A(4,7,6)               91.4399                                         !
 ! A38   A(4,7,9)              114.0149                                         !
 ! A39   A(4,7,10)             114.0486                                         !
 ! A40   A(6,7,9)              115.7297                                         !
 ! A41   A(6,7,10)             115.7761                                         !
 ! A42   A(9,7,10)             105.8129                                         !
 ! A43   A(6,8,20)             111.6462                                         !
 ! A44   A(6,8,21)             112.3548                                         !
 ! A45   A(6,8,22)             110.799                                          !
 ! A46   A(20,8,21)            106.8221                                         !
 ! A47   A(20,8,22)            107.6686                                         !
 ! A48   A(21,8,22)            107.2959                                         !
 ! A49   A(7,9,23)             110.7795                                         !
 ! A50   A(7,9,24)             110.0614                                         !
 ! A51   A(7,9,25)             114.5088                                         !
 ! A52   A(23,9,24)            108.502                                          !
 ! A53   A(23,9,25)            106.1519                                         !
 ! A54   A(24,9,25)            106.5662                                         !
 ! A55   A(7,10,26)            110.774                                          !
 ! A56   A(7,10,27)            114.0279                                         !
 ! A57   A(7,10,28)            109.7036                                         !
 ! A58   A(26,10,27)           106.4134                                         !
 ! A59   A(26,10,28)           108.6939                                         !
 ! A60   A(27,10,28)           107.0184                                         !
 ! A61   A(5,11,29)            111.2179                                         !
 ! A62   A(5,11,30)            110.7792                                         !
 ! A63   A(5,11,31)            111.9287                                         !
 ! A64   A(29,11,30)           107.8811                                         !
 ! A65   A(29,11,31)           107.3064                                         !
 ! A66   A(30,11,31)           107.533                                          !
 ! D1    D(4,1,2,6)             -1.9931         Frozen                          !
 ! D2    D(4,1,2,14)           117.45           Frozen                          !
 ! D3    D(4,1,2,15)          -124.6622         Frozen                          !
 ! D4    D(12,1,2,6)           118.9599         Frozen                          !
 ! D5    D(12,1,2,14)         -121.5971         Frozen                          !
 ! D6    D(12,1,2,15)           -3.7093         Frozen                          !
 ! D7    D(13,1,2,6)          -121.3209         Frozen                          !
 ! D8    D(13,1,2,14)           -1.8778         Frozen                          !
 ! D9    D(13,1,2,15)          116.01           Frozen                          !
 ! D10   D(2,1,4,3)             74.1622         Frozen                          !
 ! D11   D(2,1,4,7)            -34.9193         Frozen                          !
 ! D12   D(2,1,4,18)          -160.8995         Frozen                          !
 ! D13   D(12,1,4,3)           -46.2863         Frozen                          !
 ! D14   D(12,1,4,7)          -155.3677         Frozen                          !
 ! D15   D(12,1,4,18)           78.6521         Frozen                          !
 ! D16   D(13,1,4,3)          -167.0006         Frozen                          !
 ! D17   D(13,1,4,7)            83.9179         Frozen                          !
 ! D18   D(13,1,4,18)          -42.0623         Frozen                          !
 ! D19   D(1,2,6,5)            -69.0002         Frozen                          !
 ! D20   D(1,2,6,7)             37.83           Frozen                          !
 ! D21   D(1,2,6,8)            163.5993         Frozen                          !
 ! D22   D(14,2,6,5)           172.4092         Frozen                          !
 ! D23   D(14,2,6,7)           -80.7605         Frozen                          !
 ! D24   D(14,2,6,8)            45.0087         Frozen                          !
 ! D25   D(15,2,6,5)            52.4189         Frozen                          !
 ! D26   D(15,2,6,7)           159.2492         Frozen                          !
 ! D27   D(15,2,6,8)           -74.9816         Frozen                          !
 ! D28   D(5,3,4,1)            -74.8566         Frozen                          !
 ! D29   D(5,3,4,7)             33.9278         Frozen                          !
 ! D30   D(5,3,4,18)           160.1571         Frozen                          !
 ! D31   D(16,3,4,1)            47.6505         Frozen                          !
 ! D32   D(16,3,4,7)           156.435          Frozen                          !
 ! D33   D(16,3,4,18)          -77.3358         Frozen                          !
 ! D34   D(17,3,4,1)           167.4405         Frozen                          !
 ! D35   D(17,3,4,7)           -83.7751         Frozen                          !
 ! D36   D(17,3,4,18)           42.4542         Frozen                          !
 ! D37   D(4,3,5,6)              3.3251         Frozen                          !
 ! D38   D(4,3,5,11)           125.7314         Frozen                          !
 ! D39   D(4,3,5,19)          -117.1473         Frozen                          !
 ! D40   D(16,3,5,6)          -118.1066         Frozen                          !
 ! D41   D(16,3,5,11)            4.2997         Frozen                          !
 ! D42   D(16,3,5,19)          121.421          Frozen                          !
 ! D43   D(17,3,5,6)           121.1843         Frozen                          !
 ! D44   D(17,3,5,11)         -116.4094         Frozen                          !
 ! D45   D(17,3,5,19)            0.7119         Frozen                          !
 ! D46   D(1,4,7,6)             55.5111         Frozen                          !
 ! D47   D(1,4,7,9)            174.6294         Frozen                          !
 ! D48   D(1,4,7,10)           -63.669          Frozen                          !
 ! D49   D(3,4,7,6)            -55.4836         Frozen                          !
 ! D50   D(3,4,7,9)             63.6346         Frozen                          !
 ! D51   D(3,4,7,10)          -174.6638         Frozen                          !
 ! D52   D(18,4,7,6)           179.906          Frozen                          !
 ! D53   D(18,4,7,9)           -60.9757         Frozen                          !
 ! D54   D(18,4,7,10)           60.7259         Frozen                          !
 ! D55   D(3,5,6,2)             68.2609         Frozen                          !
 ! D56   D(3,5,6,7)            -38.9811         Frozen                          !
 ! D57   D(3,5,6,8)           -164.8252         Frozen                          !
 ! D58   D(11,5,6,2)           -52.2648         Frozen                          !
 ! D59   D(11,5,6,7)          -159.5068         Frozen                          !
 ! D60   D(11,5,6,8)            74.6491         Frozen                          !
 ! D61   D(19,5,6,2)          -171.685          Frozen                          !
 ! D62   D(19,5,6,7)            81.073          Frozen                          !
 ! D63   D(19,5,6,8)           -44.7711         Frozen                          !
 ! D64   D(3,5,11,29)           10.8708         Frozen                          !
 ! D65   D(3,5,11,30)         -109.1028         Frozen                          !
 ! D66   D(3,5,11,31)          130.8905         Frozen                          !
 ! D67   D(6,5,11,29)          126.9691         Frozen                          !
 ! D68   D(6,5,11,30)            6.9956         Frozen                          !
 ! D69   D(6,5,11,31)         -113.0112         Frozen                          !
 ! D70   D(19,5,11,29)        -109.8933         Frozen                          !
 ! D71   D(19,5,11,30)         130.1332         Frozen                          !
 ! D72   D(19,5,11,31)          10.1265         Frozen                          !
 ! D73   D(2,6,7,4)            -56.2622         Frozen                          !
 ! D74   D(2,6,7,9)           -173.9091         Frozen                          !
 ! D75   D(2,6,7,10)            61.4364         Frozen                          !
 ! D76   D(5,6,7,4)             56.5955         Frozen                          !
 ! D77   D(5,6,7,9)            -61.0514         Frozen                          !
 ! D78   D(5,6,7,10)           174.2941         Frozen                          !
 ! D79   D(8,6,7,4)           -179.5148         Frozen                          !
 ! D80   D(8,6,7,9)             62.8383         Frozen                          !
 ! D81   D(8,6,7,10)           -61.8162         Frozen                          !
 ! D82   D(2,6,8,20)           179.9974         Frozen                          !
 ! D83   D(2,6,8,21)            60.0062         Frozen                          !
 ! D84   D(2,6,8,22)           -59.9995         Frozen                          !
 ! D85   D(5,6,8,20)            54.8931         Frozen                          !
 ! D86   D(5,6,8,21)           -65.0982         Frozen                          !
 ! D87   D(5,6,8,22)           174.8962         Frozen                          !
 ! D88   D(7,6,8,20)           -62.4853         Frozen                          !
 ! D89   D(7,6,8,21)           177.5234         Frozen                          !
 ! D90   D(7,6,8,22)            57.5178         Frozen                          !
 ! D91   D(4,7,9,23)          -179.9982         Frozen                          !
 ! D92   D(4,7,9,24)            60.0077         Frozen                          !
 ! D93   D(4,7,9,25)           -59.9982         Frozen                          !
 ! D94   D(6,7,9,23)           -75.8019         Frozen                          !
 ! D95   D(6,7,9,24)           164.204          Frozen                          !
 ! D96   D(6,7,9,25)            44.1981         Frozen                          !
 ! D97   D(10,7,9,23)           53.8547         Frozen                          !
 ! D98   D(10,7,9,24)          -66.1393         Frozen                          !
 ! D99   D(10,7,9,25)          173.8548         Frozen                          !
 ! D100  D(4,7,10,26)         -179.9982         Frozen                          !
 ! D101  D(4,7,10,27)           60.0018         Frozen                          !
 ! D102  D(4,7,10,28)          -60.0001         Frozen                          !
 ! D103  D(6,7,10,26)           75.7579         Frozen                          !
 ! D104  D(6,7,10,27)          -44.2422         Frozen                          !
 ! D105  D(6,7,10,28)         -164.2441         Frozen                          !
 ! D106  D(9,7,10,26)          -53.8718         Frozen                          !
 ! D107  D(9,7,10,27)         -173.8718         Frozen                          !
 ! D108  D(9,7,10,28)           66.1263         Frozen                          !
 --------------------------------------------------------------------------------
                          Input orientation:                          
 ---------------------------------------------------------------------
 Center     Atomic      Atomic             Coordinates (Angstroms)
 Number     Number       Type             X           Y           Z
 ---------------------------------------------------------------------
      1          6           0        7.610527   38.971560   29.936894
      2          6           0        8.553617   40.110542   30.444188
      3          6           0        8.983084   37.260883   31.081389
      4          6           0        8.582275   37.806002   29.685887
      5          6           0        9.970870   38.351638   31.596818
      6          6           0        9.942139   39.426470   30.465883
      7          6           0        9.882901   38.519715   29.173662
      8          6           0       11.095767   40.430467   30.544456
      9          6           0       11.080442   37.569543   28.966802
     10          6           0        9.704797   39.265858   27.840659
     11          7           0        9.534610   38.886369   32.975344
     12          1           0        6.841004   38.723629   30.674245
     13          1           0        7.099150   39.271068   29.019848
     14          1           0        8.531798   40.957987   29.759083
     15          1           0        8.236270   40.503247   31.421360
     16          1           0        8.114405   37.106679   31.732179
     17          1           0        9.492554   36.298969   30.987362
     18          1           0        8.172461   37.037686   29.026018
     19          1           0       10.969497   37.944354   31.748100
     20          1           0       12.069025   39.927475   30.558804
     21          1           0       11.046602   41.053264   31.447405
     22          1           0       11.083210   41.103933   29.684275
     23          1           0       11.955574   38.120169   28.610586
     24          1           0       10.828226   36.803401   28.228312
     25          1           0       11.400815   37.039504   29.869493
     26          1           0       10.640580   39.741798   27.534518
     27          1           0        8.951811   40.056523   27.870703
     28          1           0        9.398595   38.561678   27.062011
     29          1           0        8.789743   38.309879   33.377797
     30          1           0        9.182387   39.847911   32.898313
     31          1           0       10.309261   38.894306   33.645109
 ---------------------------------------------------------------------
                    Distance matrix (angstroms):
                    1          2          3          4          5
     1  C    0.000000
     2  C    1.563344   0.000000
     3  C    2.473903   2.951444   0.000000
     4  C    1.538123   2.426262   1.550880   0.000000
     5  C    2.951418   2.535923   1.559209   2.424370   0.000000
     6  C    2.433760   1.548037   2.447121   2.254671   1.560482
     7  C    2.439338   2.431453   2.456369   1.569519   2.430570
     8  C    3.826804   2.564162   3.846815   3.733978   2.587351
     9  C    3.866140   3.876106   2.994271   2.610333   2.959697
    10  C    2.977713   2.969355   3.878546   2.606933   3.874961
    11  N    3.597435   2.977869   2.556062   3.590915   1.541621
    12  H    1.094222   2.215738   2.625623   2.202479   3.284140
    13  H    1.091872   2.202030   3.440930   2.188535   3.966472
    14  H    2.196872   1.089957   3.952306   3.153238   3.498749
    15  H    2.222894   1.099905   3.344583   3.225944   2.769304
    16  H    2.637181   3.297730   1.096317   2.212525   2.239354
    17  H    3.433402   3.962919   1.092556   2.189428   2.194008
    18  H    2.210278   3.405720   2.220692   1.092558   3.401434
    19  H    3.951999   3.497004   2.203968   3.157641   1.089047
    20  H    4.602038   3.522037   4.111793   4.173734   2.821877
    21  H    4.292056   2.847831   4.332923   4.440784   2.911753
    22  H    4.082935   2.821903   4.596899   4.138964   3.531324
    23  H    4.622055   4.347067   3.959664   3.554451   3.593078
    24  H    4.239546   4.584881   3.428394   2.859026   3.805118
    25  H    4.254840   4.227066   2.713507   2.926670   2.598094
    26  H    3.942828   3.599662   4.634925   3.551382   4.345497
    27  H    2.691715   2.604668   4.257356   2.914840   4.222445
    28  H    3.410299   3.814720   4.245010   2.849938   4.575597
    29  H    3.697051   3.450247   2.532048   3.731908   2.137449
    30  H    3.465363   2.546971   3.167594   3.853467   2.134111
    31  H    4.586938   3.848041   3.316546   4.454473   2.145809
                    6          7          8          9         10
     6  C    0.000000
     7  C    1.579730   0.000000
     8  C    1.531352   2.645957   0.000000
     9  C    2.644079   1.542635   3.267126   0.000000
    10  C    2.640819   1.537969   3.256014   2.457251   0.000000
    11  N    2.599074   3.835170   3.275769   4.493556   5.151501
    12  H    3.186603   3.398010   4.586190   4.713822   4.065038
    13  H    3.193392   2.887466   4.431882   4.329976   2.860054
    14  H    2.198675   2.848397   2.732951   4.313334   2.814174
    15  H    2.232124   3.420225   2.991819   4.766634   4.063142
    16  H    3.213339   3.416176   4.620256   4.081535   4.726026
    17  H    3.202394   2.893716   4.453732   2.866777   4.330036
    18  H    3.303219   2.267998   4.728882   2.956811   2.952605
    19  H    2.212739   2.852974   2.765043   2.808631   4.314387
    20  H    2.187072   2.946106   1.095646   3.011911   3.662734
    21  H    2.197654   3.597635   1.098003   4.276780   4.243097
    22  H    2.174128   2.894762   1.092531   3.606479   2.945753
    23  H    3.033557   2.184643   3.133145   1.093588   2.640339
    24  H    3.559826   2.175560   4.311810   1.093596   2.734239
    25  H    2.860249   2.231427   3.470916   1.094729   3.456776
    26  H    3.029877   2.180449   3.121088   2.638866   1.093586
    27  H    2.848275   2.219551   3.447511   3.452184   1.092264
    28  H    3.553821   2.166883   4.301184   2.727851   1.093582
    29  H    3.324761   4.348997   4.224033   5.025164   5.693076
    30  H    2.582935   4.015950   3.088857   4.924465   5.117769
    31  H    3.244296   4.507321   3.548582   4.923035   5.847655
                   11         12         13         14         15
    11  N    0.000000
    12  H    3.546415   0.000000
    13  H    4.661053   1.761635   0.000000
    14  H    3.954942   2.947653   2.333376   0.000000
    15  H    2.591303   2.381593   2.928919   1.748510   0.000000
    16  H    2.594175   2.314152   3.615530   4.347401   3.412936
    17  H    3.263201   3.606624   4.293351   4.913061   4.409372
    18  H    4.568398   2.707736   2.477908   4.004405   4.213294
    19  H    2.110077   4.336461   4.917633   4.356667   3.758354
    20  H    3.653331   5.366077   5.243941   3.770077   3.970584
    21  H    3.052237   4.869500   4.965041   3.030470   2.863768
    22  H    4.259916   4.964091   4.435492   2.556677   3.388710
    23  H    5.049678   5.548124   5.007686   4.592875   5.235718
    24  H    5.342894   5.056462   4.541136   4.987727   5.531966
    25  H    4.066933   4.927046   4.919969   4.857773   4.941675
    26  H    5.617608   5.033024   3.869046   3.297691   4.633363
    27  H    5.269371   3.753925   2.317288   2.134251   3.649483
    28  H    5.923802   4.428965   3.102226   3.710503   4.911681
    29  H    1.024273   3.358269   4.772181   4.491558   2.990793
    30  H    1.026916   3.419439   4.440171   3.392683   1.872431
    31  H    1.024076   4.569899   5.642677   4.745456   3.439629
                   16         17         18         19         20
    16  H    0.000000
    17  H    1.762510   0.000000
    18  H    2.707662   2.476937   0.000000
    19  H    2.975484   2.338242   4.006892   0.000000
    20  H    4.997271   4.470785   5.087585   2.560499   0.000000
    21  H    4.924876   5.022950   5.499879   3.124369   1.761353
    22  H    5.383842   5.226461   5.043820   3.775611   1.766546
    23  H    5.052335   3.877151   3.956804   3.293517   2.659845
    24  H    4.442284   3.106578   2.782861   3.702787   4.090306
    25  H    3.778174   2.332270   3.336723   2.129308   3.043358
    26  H    5.562893   5.009308   3.953278   4.592741   3.349812
    27  H    4.930904   4.911738   3.324983   4.854536   4.118199
    28  H    5.057334   4.531783   2.771873   4.980788   4.606968
    29  H    2.147518   3.201856   4.575750   2.746060   4.617037
    30  H    3.164618   4.042638   4.889988   2.853118   3.716493
    31  H    3.416476   3.803473   5.417468   2.221928   3.699931
                   21         22         23         24         25
    21  H    0.000000
    22  H    1.764237   0.000000
    23  H    4.180529   3.288871   0.000000
    24  H    5.335876   4.547463   1.775084   0.000000
    25  H    4.327302   4.081025   1.749412   1.754160   0.000000
    26  H    4.146744   2.583175   2.348790   3.025019   3.651365
    27  H    4.263149   2.988139   3.649587   3.772482   4.369804
    28  H    5.306186   4.022096   3.021780   2.548655   3.769331
    29  H    4.043016   5.168058   5.725799   5.739519   4.554091
    30  H    2.652039   3.939640   5.390758   5.812636   4.688531
    31  H    3.167755   4.601049   5.353135   5.829485   4.345924
                   26         27         28         29         30
    26  H    0.000000
    27  H    1.750432   0.000000
    28  H    1.777209   1.757316   0.000000
    29  H    6.294434   5.779715   6.350059   0.000000
    30  H    5.559487   5.037216   5.980265   1.658196   0.000000
    31  H    6.177973   6.044599   6.654107   1.649832   1.654362
                   31
    31  H    0.000000
 Stoichiometry    C10H20N(1+)
 Framework group  C1[X(C10H20N)]
 Deg. of freedom    87
 Full point group                 C1      NOp   1
 Largest Abelian subgroup         C1      NOp   1
 Largest concise Abelian subgroup C1      NOp   1
                         Standard orientation:                         
 ---------------------------------------------------------------------
 Center     Atomic      Atomic             Coordinates (Angstroms)
 Number     Number       Type             X           Y           Z
 ---------------------------------------------------------------------
      1          6           0        0.053608   -1.620055   -1.159966
      2          6           0       -0.356493   -0.181395   -1.613973
      3          6           0       -0.816972   -1.200557    1.117381
      4          6           0        0.485125   -1.410143    0.301388
      5          6           0       -1.226894    0.252546    0.728035
      6          6           0       -0.153362    0.658199   -0.329356
      7          6           0        1.150613    0.011203    0.284316
      8          6           0       -0.104221    2.163329   -0.607218
      9          6           0        1.562579    0.528316    1.678089
     10          6           0        2.415113    0.100770   -0.586524
     11          7           0       -2.672957    0.295720    0.195463
     12          1           0       -0.776265   -2.327017   -1.253976
     13          1           0        0.876036   -1.999512   -1.769728
     14          1           0        0.285746    0.160622   -2.425489
     15          1           0       -1.383216   -0.150752   -2.007281
     16          1           0       -1.578981   -1.953442    0.884105
     17          1           0       -0.614563   -1.265386    2.189065
     18          1           0        1.108308   -2.220293    0.687371
     19          1           0       -1.218205    0.913650    1.593419
     20          1           0        0.039903    2.739760    0.313323
     21          1           0       -1.027925    2.532571   -1.072021
     22          1           0        0.719102    2.406400   -1.282999
     23          1           0        2.019116    1.519350    1.604869
     24          1           0        2.285975   -0.154292    2.132727
     25          1           0        0.735789    0.625663    2.388984
     26          1           0        2.833640    1.110750   -0.559943
     27          1           0        2.247660   -0.136311   -1.639517
     28          1           0        3.168150   -0.600546   -0.216372
     29          1           0       -3.155608   -0.592428    0.360923
     30          1           0       -2.683687    0.476884   -0.815290
     31          1           0       -3.224854    1.031014    0.646555
 ---------------------------------------------------------------------
 Rotational constants (GHZ):           1.4647132           1.0612321           1.0022670
 Standard basis: 6-31G(d,p) (6D, 7F)
 There are   265 symmetry adapted cartesian basis functions of A   symmetry.
 There are   265 symmetry adapted basis functions of A   symmetry.
   265 basis functions,   448 primitive gaussians,   265 cartesian basis functions
    43 alpha electrons       43 beta electrons
       nuclear repulsion energy       725.6703192557 Hartrees.
 NAtoms=   31 NActive=   31 NUniq=   31 SFac= 1.00D+00 NAtFMM=   60 NAOKFM=F Big=F
 Integral buffers will be    131072 words long.
 Raffenetti 1 integral format.
 Two-electron integral symmetry is turned on.
 ------------------------------------------------------------------------------
 Polarizable Continuum Model (PCM)
 =================================
 Model                : PCM.
 Atomic radii         : UFF (Universal Force Field).
 Polarization charges : Total charges.
 Charge compensation  : None.
 Solution method      : On-the-fly selection.
 Cavity type          : Scaled VdW (van der Waals Surface) (Alpha=1.100).
 Cavity algorithm     : GePol (No added spheres)
                        Default sphere list used, NSphG=   31.
                        Lebedev-Laikov grids with approx.  5.0 points / Ang**2.
                        Smoothing algorithm: York/Karplus (Gamma=1.0000).
                        Polarization charges: spherical gaussians, with
                                              point-specific exponents (IZeta= 3).
                        Self-potential: point-specific (ISelfS= 7).
                        Self-field    : sphere-specific E.n sum rule (ISelfD= 2).
 Solvent              : Water, Eps=  78.355300 Eps(inf)=   1.777849
 ------------------------------------------------------------------------------
 One-electron integrals computed using PRISM.
 NBasis=   265 RedAO= T EigKep=  1.33D-03  NBF=   265
 NBsUse=   265 1.00D-06 EigRej= -1.00D+00 NBFU=   265
 Initial guess from the checkpoint file:  "G5.chk"
 B after Tr=     0.000000    0.000000    0.000000
         Rot=    1.000000   -0.000000    0.000000   -0.000000 Ang=   0.00 deg.
 Requested convergence on RMS density matrix=1.00D-08 within 128 cycles.
 Requested convergence on MAX density matrix=1.00D-06.
 Requested convergence on             energy=1.00D-06.
 No special actions if energy rises.
 Inv3:  Mode=1 IEnd=     9741612.
 Iteration    1 A*A^-1 deviation from unit magnitude is 7.11D-15 for   1801.
 Iteration    1 A*A^-1 deviation from orthogonality  is 3.04D-15 for   1776    733.
 Iteration    1 A^-1*A deviation from unit magnitude is 7.11D-15 for   1801.
 Iteration    1 A^-1*A deviation from orthogonality  is 1.64D-15 for   1788    665.
 Error on total polarization charges =  0.00818
 SCF Done:  E(RHF) =  -444.671571826     A.U. after   11 cycles
            NFock= 11  Conv=0.71D-08     -V/T= 2.0019

 **********************************************************************

            Population analysis using the SCF density.

 **********************************************************************

 Orbital symmetries:
       Occupied  (A) (A) (A) (A) (A) (A) (A) (A) (A) (A) (A) (A)
                 (A) (A) (A) (A) (A) (A) (A) (A) (A) (A) (A) (A)
                 (A) (A) (A) (A) (A) (A) (A) (A) (A) (A) (A) (A)
                 (A) (A) (A) (A) (A) (A) (A)
       Virtual   (A) (A) (A) (A) (A) (A) (A) (A) (A) (A) (A) (A)
                 (A) (A) (A) (A) (A) (A) (A) (A) (A) (A) (A) (A)
                 (A) (A) (A) (A) (A) (A) (A) (A) (A) (A) (A) (A)
                 (A) (A) (A) (A) (A) (A) (A) (A) (A) (A) (A) (A)
                 (A) (A) (A) (A) (A) (A) (A) (A) (A) (A) (A) (A)
                 (A) (A) (A) (A) (A) (A) (A) (A) (A) (A) (A) (A)
                 (A) (A) (A) (A) (A) (A) (A) (A) (A) (A) (A) (A)
                 (A) (A) (A) (A) (A) (A) (A) (A) (A) (A) (A) (A)
                 (A) (A) (A) (A) (A) (A) (A) (A) (A) (A) (A) (A)
                 (A) (A) (A) (A) (A) (A) (A) (A) (A) (A) (A) (A)
                 (A) (A) (A) (A) (A) (A) (A) (A) (A) (A) (A) (A)
                 (A) (A) (A) (A) (A) (A) (A) (A) (A) (A) (A) (A)
                 (A) (A) (A) (A) (A) (A) (A) (A) (A) (A) (A) (A)
                 (A) (A) (A) (A) (A) (A) (A) (A) (A) (A) (A) (A)
                 (A) (A) (A) (A) (A) (A) (A) (A) (A) (A) (A) (A)
                 (A) (A) (A) (A) (A) (A) (A) (A) (A) (A) (A) (A)
                 (A) (A) (A) (A) (A) (A) (A) (A) (A) (A) (A) (A)
                 (A) (A) (A) (A) (A) (A) (A) (A) (A) (A) (A) (A)
                 (A) (A) (A) (A) (A) (A)
 The electronic state is 1-A.
 Alpha  occ. eigenvalues --  -15.70686 -11.31228 -11.26042 -11.24963 -11.24405
 Alpha  occ. eigenvalues --  -11.23497 -11.23481 -11.22478 -11.22453 -11.22002
 Alpha  occ. eigenvalues --  -11.21849  -1.31748  -1.18641  -1.03960  -1.03597
 Alpha  occ. eigenvalues --   -1.02433  -0.92838  -0.92523  -0.87504  -0.85654
 Alpha  occ. eigenvalues --   -0.78113  -0.77412  -0.74529  -0.70928  -0.67654
 Alpha  occ. eigenvalues --   -0.66050  -0.64768  -0.61110  -0.58181  -0.57707
 Alpha  occ. eigenvalues --   -0.57050  -0.55659  -0.55163  -0.53752  -0.53191
 Alpha  occ. eigenvalues --   -0.51880  -0.49643  -0.48728  -0.46659  -0.46061
 Alpha  occ. eigenvalues --   -0.45194  -0.43890  -0.42082
 Alpha virt. eigenvalues --    0.16738   0.20138   0.22164   0.22837   0.24226
 Alpha virt. eigenvalues --    0.24920   0.26403   0.27755   0.28272   0.28939
 Alpha virt. eigenvalues --    0.30684   0.31011   0.31377   0.32409   0.33022
 Alpha virt. eigenvalues --    0.34103   0.35595   0.35685   0.36109   0.37091
 Alpha virt. eigenvalues --    0.37593   0.39873   0.40967   0.41224   0.41925
 Alpha virt. eigenvalues --    0.42214   0.44279   0.44601   0.45160   0.48668
 Alpha virt. eigenvalues --    0.49113   0.53044   0.65823   0.68811   0.69619
 Alpha virt. eigenvalues --    0.70345   0.72761   0.74025   0.74594   0.80498
 Alpha virt. eigenvalues --    0.82911   0.83759   0.84810   0.85581   0.87508
 Alpha virt. eigenvalues --    0.89169   0.89975   0.92056   0.92338   0.93299
 Alpha virt. eigenvalues --    0.95627   0.97780   0.99148   0.99989   1.01654
 Alpha virt. eigenvalues --    1.03262   1.04288   1.05179   1.06593   1.07100
 Alpha virt. eigenvalues --    1.07833   1.08647   1.09943   1.10249   1.10582
 Alpha virt. eigenvalues --    1.11809   1.12552   1.12798   1.14070   1.14696
 Alpha virt. eigenvalues --    1.15397   1.15984   1.16466   1.17864   1.18609
 Alpha virt. eigenvalues --    1.18861   1.19905   1.22191   1.22706   1.24005
 Alpha virt. eigenvalues --    1.24575   1.25262   1.25683   1.27354   1.38284
 Alpha virt. eigenvalues --    1.45355   1.47194   1.49815   1.55579   1.56933
 Alpha virt. eigenvalues --    1.58897   1.65968   1.69251   1.73726   1.77525
 Alpha virt. eigenvalues --    1.80973   1.82733   1.84671   1.85526   1.86116
 Alpha virt. eigenvalues --    1.89201   1.92487   1.94443   1.98498   2.01402
 Alpha virt. eigenvalues --    2.02792   2.03362   2.06621   2.06838   2.10077
 Alpha virt. eigenvalues --    2.11540   2.13645   2.14889   2.18636   2.19312
 Alpha virt. eigenvalues --    2.20464   2.22041   2.22227   2.25046   2.25981
 Alpha virt. eigenvalues --    2.27699   2.29048   2.30558   2.32473   2.33055
 Alpha virt. eigenvalues --    2.33921   2.34373   2.35265   2.35781   2.37357
 Alpha virt. eigenvalues --    2.40503   2.42670   2.43959   2.45026   2.45875
 Alpha virt. eigenvalues --    2.46339   2.47976   2.48697   2.50363   2.51587
 Alpha virt. eigenvalues --    2.52174   2.54719   2.57691   2.59014   2.61411
 Alpha virt. eigenvalues --    2.62897   2.65438   2.66820   2.67946   2.69711
 Alpha virt. eigenvalues --    2.71734   2.72618   2.73388   2.75988   2.76761
 Alpha virt. eigenvalues --    2.78947   2.80169   2.83231   2.84636   2.86075
 Alpha virt. eigenvalues --    2.88761   2.90741   2.92358   2.93696   2.97426
 Alpha virt. eigenvalues --    2.97829   3.00397   3.01260   3.03005   3.04786
 Alpha virt. eigenvalues --    3.05258   3.06164   3.08455   3.09090   3.11324
 Alpha virt. eigenvalues --    3.13430   3.14124   3.15581   3.15730   3.19112
 Alpha virt. eigenvalues --    3.20487   3.21775   3.22683   3.25025   3.25969
 Alpha virt. eigenvalues --    3.28630   3.31212   3.32802   3.34508   3.37776
 Alpha virt. eigenvalues --    3.45342   3.52388   3.56371   3.58142   3.60187
 Alpha virt. eigenvalues --    3.62820   3.68157   3.70369   3.73108   3.73903
 Alpha virt. eigenvalues --    3.76845   3.77884   3.79145   3.80608   3.81460
 Alpha virt. eigenvalues --    3.83631   3.84508   3.86165   3.86976   3.90692
 Alpha virt. eigenvalues --    3.94474   4.48674   4.74341   4.88365   4.92443
 Alpha virt. eigenvalues --    4.94402   4.97133   5.01720   5.14680   5.25981
 Alpha virt. eigenvalues --    5.28894   5.38762
          Condensed to atoms (all electrons):
               1          2          3          4          5          6
     1  C    5.048412   0.312751  -0.076630   0.354367  -0.001945  -0.058954
     2  C    0.312751   5.076130   0.001978  -0.069564  -0.064837   0.359983
     3  C   -0.076630   0.001978   5.062247   0.357598   0.314569  -0.067503
     4  C    0.354367  -0.069564   0.357598   5.133126  -0.067955  -0.112656
     5  C   -0.001945  -0.064837   0.314569  -0.067955   5.130120   0.356420
     6  C   -0.058954   0.359983  -0.067503  -0.112656   0.356420   5.260409
     7  C   -0.078741  -0.079654  -0.069780   0.351252  -0.076663   0.351889
     8  C    0.004607  -0.054774   0.003728   0.005944  -0.056489   0.346717
     9  C    0.004594   0.004073  -0.006675  -0.052398  -0.002248  -0.051946
    10  C   -0.006466  -0.005067   0.004321  -0.049971   0.004114  -0.048076
    11  N    0.002034  -0.012332  -0.049741   0.003639   0.145739  -0.038203
    12  H    0.413169  -0.035377  -0.008054  -0.038143   0.000746   0.001841
    13  H    0.414981  -0.034565   0.004563  -0.037078  -0.000219   0.003335
    14  H   -0.033794   0.420081  -0.000325   0.003481   0.004035  -0.034543
    15  H   -0.035682   0.409231   0.000671   0.002625  -0.006764  -0.039791
    16  H   -0.007488   0.000414   0.413300  -0.033645  -0.038384   0.001615
    17  H    0.004573  -0.000233   0.414011  -0.036279  -0.034663   0.003584
    18  H   -0.029171   0.004013  -0.029545   0.412217   0.004117   0.005712
    19  H   -0.000361   0.003231  -0.027338   0.003152   0.424416  -0.030815
    20  H   -0.000162   0.004348  -0.000010   0.000026  -0.004137  -0.036886
    21  H   -0.000008  -0.004210  -0.000046  -0.000228  -0.004717  -0.035970
    22  H   -0.000004  -0.003994  -0.000125   0.000055   0.004397  -0.034465
    23  H   -0.000124  -0.000068   0.000017   0.004088  -0.000159  -0.003029
    24  H   -0.000031  -0.000099   0.000026  -0.004726  -0.000111   0.004605
    25  H   -0.000048  -0.000053  -0.001348  -0.002497   0.000054  -0.005007
    26  H   -0.000007   0.000005  -0.000118   0.004099  -0.000076  -0.003241
    27  H   -0.001313  -0.001204  -0.000053  -0.002621  -0.000038  -0.004671
    28  H   -0.000051  -0.000064  -0.000025  -0.004750  -0.000091   0.004526
    29  H    0.000039  -0.000223  -0.003021   0.000040  -0.020094   0.002171
    30  H   -0.000663   0.004208   0.002154  -0.000034  -0.022373  -0.004783
    31  H   -0.000026   0.000323   0.002078  -0.000095  -0.016860   0.000654
               7          8          9         10         11         12
     1  C   -0.078741   0.004607   0.004594  -0.006466   0.002034   0.413169
     2  C   -0.079654  -0.054774   0.004073  -0.005067  -0.012332  -0.035377
     3  C   -0.069780   0.003728  -0.006675   0.004321  -0.049741  -0.008054
     4  C    0.351252   0.005944  -0.052398  -0.049971   0.003639  -0.038143
     5  C   -0.076663  -0.056489  -0.002248   0.004114   0.145739   0.000746
     6  C    0.351889   0.346717  -0.051946  -0.048076  -0.038203   0.001841
     7  C    5.231275  -0.042124   0.354555   0.361761   0.003196   0.005232
     8  C   -0.042124   4.898514  -0.000905  -0.001701   0.000888  -0.000085
     9  C    0.354555  -0.000905   4.941898  -0.070631   0.000127  -0.000082
    10  C    0.361761  -0.001701  -0.070631   4.925125  -0.000038   0.000082
    11  N    0.003196   0.000888   0.000127  -0.000038   6.617133  -0.000050
    12  H    0.005232  -0.000085  -0.000082   0.000082  -0.000050   0.554017
    13  H   -0.001845  -0.000140  -0.000084   0.000060   0.000003  -0.024484
    14  H   -0.002479  -0.003826  -0.000053  -0.001366   0.000010   0.002358
    15  H    0.005039  -0.000825  -0.000078   0.000206  -0.003959  -0.005523
    16  H    0.004873  -0.000076   0.000070  -0.000069  -0.005365   0.002207
    17  H   -0.002091  -0.000133   0.000028  -0.000077   0.002142   0.000083
    18  H   -0.028174  -0.000049  -0.001094  -0.001253  -0.000041  -0.000018
    19  H   -0.002185  -0.002458  -0.000780  -0.000033  -0.033078   0.000006
    20  H   -0.004573   0.403810   0.000569   0.000142   0.000100   0.000002
    21  H    0.004120   0.403333  -0.000082  -0.000074   0.000405  -0.000002
    22  H   -0.005113   0.406525   0.000158   0.000415  -0.000088   0.000000
    23  H   -0.035904   0.000616   0.404137  -0.006689  -0.000006   0.000002
    24  H   -0.036425  -0.000044   0.403162  -0.004033   0.000000  -0.000001
    25  H   -0.035017   0.000159   0.404403   0.004512   0.000110   0.000001
    26  H   -0.036778   0.000594  -0.006794   0.404768   0.000000   0.000002
    27  H   -0.033903   0.000109   0.004535   0.406153  -0.000001   0.000071
    28  H   -0.037671  -0.000029  -0.004212   0.403912   0.000001  -0.000017
    29  H   -0.000029  -0.000053  -0.000003   0.000001   0.339117   0.000067
    30  H    0.000231   0.000785  -0.000005  -0.000007   0.334915  -0.000082
    31  H   -0.000037   0.000116   0.000005   0.000000   0.340033   0.000002
              13         14         15         16         17         18
     1  C    0.414981  -0.033794  -0.035682  -0.007488   0.004573  -0.029171
     2  C   -0.034565   0.420081   0.409231   0.000414  -0.000233   0.004013
     3  C    0.004563  -0.000325   0.000671   0.413300   0.414011  -0.029545
     4  C   -0.037078   0.003481   0.002625  -0.033645  -0.036279   0.412217
     5  C   -0.000219   0.004035  -0.006764  -0.038384  -0.034663   0.004117
     6  C    0.003335  -0.034543  -0.039791   0.001615   0.003584   0.005712
     7  C   -0.001845  -0.002479   0.005039   0.004873  -0.002091  -0.028174
     8  C   -0.000140  -0.003826  -0.000825  -0.000076  -0.000133  -0.000049
     9  C   -0.000084  -0.000053  -0.000078   0.000070   0.000028  -0.001094
    10  C    0.000060  -0.001366   0.000206  -0.000069  -0.000077  -0.001253
    11  N    0.000003   0.000010  -0.003959  -0.005365   0.002142  -0.000041
    12  H   -0.024484   0.002358  -0.005523   0.002207   0.000083  -0.000018
    13  H    0.547317  -0.007253   0.002033   0.000057  -0.000098  -0.003043
    14  H   -0.007253   0.522528  -0.023407   0.000012   0.000006  -0.000125
    15  H    0.002033  -0.023407   0.572479  -0.000082   0.000009  -0.000064
    16  H    0.000057   0.000012  -0.000082   0.526894  -0.020480  -0.000395
    17  H   -0.000098   0.000006   0.000009  -0.020480   0.516119  -0.002819
    18  H   -0.003043  -0.000125  -0.000064  -0.000395  -0.002819   0.525564
    19  H    0.000008  -0.000055  -0.000032   0.001715  -0.005899  -0.000100
    20  H    0.000003   0.000032  -0.000110  -0.000000  -0.000006  -0.000001
    21  H    0.000000  -0.000081   0.000966  -0.000001   0.000001   0.000002
    22  H   -0.000007   0.001800   0.000002   0.000002   0.000003  -0.000001
    23  H    0.000000   0.000000  -0.000000   0.000002   0.000002  -0.000057
    24  H   -0.000000  -0.000001   0.000002  -0.000017   0.000255   0.001475
    25  H   -0.000000   0.000001  -0.000002   0.000066  -0.001266   0.000003
    26  H    0.000014   0.000173  -0.000010   0.000002   0.000000  -0.000062
    27  H   -0.001551  -0.002530   0.000137   0.000001  -0.000000   0.000014
    28  H    0.000253   0.000006   0.000001  -0.000001  -0.000002   0.001509
    29  H    0.000000   0.000006  -0.000155   0.003514   0.000145  -0.000009
    30  H    0.000016  -0.000307   0.006578   0.000140  -0.000085   0.000001
    31  H   -0.000000  -0.000002   0.000143   0.000145  -0.000064   0.000001
              19         20         21         22         23         24
     1  C   -0.000361  -0.000162  -0.000008  -0.000004  -0.000124  -0.000031
     2  C    0.003231   0.004348  -0.004210  -0.003994  -0.000068  -0.000099
     3  C   -0.027338  -0.000010  -0.000046  -0.000125   0.000017   0.000026
     4  C    0.003152   0.000026  -0.000228   0.000055   0.004088  -0.004726
     5  C    0.424416  -0.004137  -0.004717   0.004397  -0.000159  -0.000111
     6  C   -0.030815  -0.036886  -0.035970  -0.034465  -0.003029   0.004605
     7  C   -0.002185  -0.004573   0.004120  -0.005113  -0.035904  -0.036425
     8  C   -0.002458   0.403810   0.403333   0.406525   0.000616  -0.000044
     9  C   -0.000780   0.000569  -0.000082   0.000158   0.404137   0.403162
    10  C   -0.000033   0.000142  -0.000074   0.000415  -0.006689  -0.004033
    11  N   -0.033078   0.000100   0.000405  -0.000088  -0.000006   0.000000
    12  H    0.000006   0.000002  -0.000002   0.000000   0.000002  -0.000001
    13  H    0.000008   0.000003   0.000000  -0.000007   0.000000  -0.000000
    14  H   -0.000055   0.000032  -0.000081   0.001800   0.000000  -0.000001
    15  H   -0.000032  -0.000110   0.000966   0.000002  -0.000000   0.000002
    16  H    0.001715  -0.000000  -0.000001   0.000002   0.000002  -0.000017
    17  H   -0.005899  -0.000006   0.000001   0.000003   0.000002   0.000255
    18  H   -0.000100  -0.000001   0.000002  -0.000001  -0.000057   0.001475
    19  H    0.459974   0.002026  -0.000062  -0.000027   0.000137  -0.000018
    20  H    0.002026   0.564370  -0.030240  -0.026503  -0.000002  -0.000006
    21  H   -0.000062  -0.030240   0.572437  -0.027236  -0.000017   0.000002
    22  H   -0.000027  -0.026503  -0.027236   0.549100   0.000080  -0.000011
    23  H    0.000137  -0.000002  -0.000017   0.000080   0.563378  -0.026632
    24  H   -0.000018  -0.000006   0.000002  -0.000011  -0.026632   0.558504
    25  H   -0.001985  -0.000029  -0.000011   0.000008  -0.029625  -0.028108
    26  H   -0.000001   0.000080  -0.000019  -0.000038   0.001873   0.000065
    27  H   -0.000000   0.000004  -0.000012   0.000024   0.000048  -0.000056
    28  H   -0.000000  -0.000009   0.000002  -0.000006   0.000075   0.001663
    29  H    0.001297  -0.000004   0.000018   0.000002   0.000000  -0.000000
    30  H    0.001948  -0.000006   0.000802  -0.000070   0.000000   0.000000
    31  H   -0.003423   0.000022  -0.000063   0.000000  -0.000000  -0.000000
              25         26         27         28         29         30
     1  C   -0.000048  -0.000007  -0.001313  -0.000051   0.000039  -0.000663
     2  C   -0.000053   0.000005  -0.001204  -0.000064  -0.000223   0.004208
     3  C   -0.001348  -0.000118  -0.000053  -0.000025  -0.003021   0.002154
     4  C   -0.002497   0.004099  -0.002621  -0.004750   0.000040  -0.000034
     5  C    0.000054  -0.000076  -0.000038  -0.000091  -0.020094  -0.022373
     6  C   -0.005007  -0.003241  -0.004671   0.004526   0.002171  -0.004783
     7  C   -0.035017  -0.036778  -0.033903  -0.037671  -0.000029   0.000231
     8  C    0.000159   0.000594   0.000109  -0.000029  -0.000053   0.000785
     9  C    0.404403  -0.006794   0.004535  -0.004212  -0.000003  -0.000005
    10  C    0.004512   0.404768   0.406153   0.403912   0.000001  -0.000007
    11  N    0.000110   0.000000  -0.000001   0.000001   0.339117   0.334915
    12  H    0.000001   0.000002   0.000071  -0.000017   0.000067  -0.000082
    13  H   -0.000000   0.000014  -0.001551   0.000253   0.000000   0.000016
    14  H    0.000001   0.000173  -0.002530   0.000006   0.000006  -0.000307
    15  H   -0.000002  -0.000010   0.000137   0.000001  -0.000155   0.006578
    16  H    0.000066   0.000002   0.000001  -0.000001   0.003514   0.000140
    17  H   -0.001266   0.000000  -0.000000  -0.000002   0.000145  -0.000085
    18  H    0.000003  -0.000062   0.000014   0.001509  -0.000009   0.000001
    19  H   -0.001985  -0.000001  -0.000000  -0.000000   0.001297   0.001948
    20  H   -0.000029   0.000080   0.000004  -0.000009  -0.000004  -0.000006
    21  H   -0.000011  -0.000019  -0.000012   0.000002   0.000018   0.000802
    22  H    0.000008  -0.000038   0.000024  -0.000006   0.000002  -0.000070
    23  H   -0.029625   0.001873   0.000048   0.000075   0.000000   0.000000
    24  H   -0.028108   0.000065  -0.000056   0.001663  -0.000000   0.000000
    25  H    0.580211   0.000053  -0.000106  -0.000055   0.000001  -0.000004
    26  H    0.000053   0.565908  -0.029370  -0.026727   0.000000  -0.000000
    27  H   -0.000106  -0.029370   0.570743  -0.027585   0.000000   0.000000
    28  H   -0.000055  -0.026727  -0.027585   0.560222  -0.000000   0.000000
    29  H    0.000001   0.000000   0.000000  -0.000000   0.292987  -0.010842
    30  H   -0.000004  -0.000000   0.000000   0.000000  -0.010842   0.299726
    31  H    0.000005   0.000000   0.000000  -0.000000  -0.010416  -0.010655
              31
     1  C   -0.000026
     2  C    0.000323
     3  C    0.002078
     4  C   -0.000095
     5  C   -0.016860
     6  C    0.000654
     7  C   -0.000037
     8  C    0.000116
     9  C    0.000005
    10  C    0.000000
    11  N    0.340033
    12  H    0.000002
    13  H   -0.000000
    14  H   -0.000002
    15  H    0.000143
    16  H    0.000145
    17  H   -0.000064
    18  H    0.000001
    19  H   -0.003423
    20  H    0.000022
    21  H   -0.000063
    22  H    0.000000
    23  H   -0.000000
    24  H   -0.000000
    25  H    0.000005
    26  H    0.000000
    27  H    0.000000
    28  H   -0.000000
    29  H   -0.010416
    30  H   -0.010655
    31  H    0.288152
 Mulliken charges:
               1
     1  C   -0.227859
     2  C   -0.234452
     3  C   -0.240927
     4  C   -0.123070
     5  C    0.030096
     6  C   -0.092923
     7  C   -0.064236
     8  C   -0.312732
     9  C   -0.324243
    10  C   -0.320019
    11  N   -0.646688
    12  H    0.132031
    13  H    0.137724
    14  H    0.155619
    15  H    0.116362
    16  H    0.150976
    17  H    0.163234
    18  H    0.141393
    19  H    0.210739
    20  H    0.127149
    21  H    0.120994
    22  H    0.135116
    23  H    0.127857
    24  H    0.130560
    25  H    0.115574
    26  H    0.125604
    27  H    0.123176
    28  H    0.129127
    29  H    0.405445
    30  H    0.398413
    31  H    0.409960
 Sum of Mulliken charges =   1.00000
 Mulliken charges with hydrogens summed into heavy atoms:
               1
     1  C    0.041895
     2  C    0.037529
     3  C    0.073283
     4  C    0.018323
     5  C    0.240835
     6  C   -0.092923
     7  C   -0.064236
     8  C    0.070527
     9  C    0.049748
    10  C    0.057888
    11  N    0.567130
 Electronic spatial extent (au):  <R**2>=           1589.9537
 Charge=              1.0000 electrons
 Dipole moment (field-independent basis, Debye):
    X=            -10.4629    Y=              1.0459    Z=              0.9894  Tot=             10.5614
 Quadrupole moment (field-independent basis, Debye-Ang):
   XX=            -34.6596   YY=            -64.9024   ZZ=            -64.7082
   XY=             -3.2642   XZ=             -2.6246   YZ=              0.1128
 Traceless Quadrupole moment (field-independent basis, Debye-Ang):
   XX=             20.0971   YY=            -10.1457   ZZ=             -9.9514
   XY=             -3.2642   XZ=             -2.6246   YZ=              0.1128
 Octapole moment (field-independent basis, Debye-Ang**2):
  XXX=           -117.5870  YYY=              2.1657  ZZZ=              2.3609  XYY=            -13.3383
  XXY=              8.9874  XXZ=              7.6404  XZZ=            -11.0555  YZZ=              2.1155
  YYZ=              3.4448  XYZ=             -2.0752
 Hexadecapole moment (field-independent basis, Debye-Ang**3):
 XXXX=           -607.7675 YYYY=           -624.6022 ZZZZ=           -540.8841 XXXY=            -38.7601
 XXXZ=            -26.7412 YYYX=             -5.6674 YYYZ=              0.5788 ZZZX=            -11.0833
 ZZZY=             -0.6526 XXYY=           -222.2579 XXZZ=           -227.2259 YYZZ=           -193.5692
 XXYZ=              2.0435 YYXZ=             -5.6024 ZZXY=             -8.9498
 N-N= 7.256703192557D+02 E-N=-2.471602759156D+03  KE= 4.438328811052D+02
 Merz-Kollman atomic radii used.

 **********************************************************************

            Electrostatic Properties Using The SCF Density

 **********************************************************************

       Atomic Center    1 is at   0.053608 -1.620055 -1.159966
       Atomic Center    2 is at  -0.356493 -0.181395 -1.613973
       Atomic Center    3 is at  -0.816972 -1.200557  1.117381
       Atomic Center    4 is at   0.485125 -1.410143  0.301388
       Atomic Center    5 is at  -1.226894  0.252546  0.728035
       Atomic Center    6 is at  -0.153362  0.658199 -0.329356
       Atomic Center    7 is at   1.150613  0.011203  0.284316
       Atomic Center    8 is at  -0.104221  2.163329 -0.607218
       Atomic Center    9 is at   1.562579  0.528316  1.678089
       Atomic Center   10 is at   2.415113  0.100770 -0.586524
       Atomic Center   11 is at  -2.672957  0.295720  0.195463
       Atomic Center   12 is at  -0.776265 -2.327017 -1.253976
       Atomic Center   13 is at   0.876036 -1.999512 -1.769728
       Atomic Center   14 is at   0.285746  0.160622 -2.425489
       Atomic Center   15 is at  -1.383216 -0.150752 -2.007281
       Atomic Center   16 is at  -1.578981 -1.953442  0.884105
       Atomic Center   17 is at  -0.614563 -1.265386  2.189065
       Atomic Center   18 is at   1.108308 -2.220293  0.687371
       Atomic Center   19 is at  -1.218205  0.913650  1.593419
       Atomic Center   20 is at   0.039903  2.739760  0.313323
       Atomic Center   21 is at  -1.027925  2.532571 -1.072021
       Atomic Center   22 is at   0.719102  2.406400 -1.282999
       Atomic Center   23 is at   2.019116  1.519350  1.604869
       Atomic Center   24 is at   2.285975 -0.154292  2.132727
       Atomic Center   25 is at   0.735789  0.625663  2.388984
       Atomic Center   26 is at   2.833640  1.110750 -0.559943
       Atomic Center   27 is at   2.247660 -0.136311 -1.639517
       Atomic Center   28 is at   3.168150 -0.600546 -0.216372
       Atomic Center   29 is at  -3.155608 -0.592428  0.360923
       Atomic Center   30 is at  -2.683687  0.476884 -0.815290
       Atomic Center   31 is at  -3.224854  1.031014  0.646555
    1000 points will be used for fitting atomic charges
 Fitting point charges to electrostatic potential
 Charges from ESP fit, RMS=   0.00093 RRMS=   0.00757:
 ESP charges:
               1
     1  C   -0.295126
     2  C    0.000714
     3  C   -0.397218
     4  C    0.127771
     5  C    0.526333
     6  C   -0.047376
     7  C    0.438093
     8  C   -0.469571
     9  C   -0.502111
    10  C   -0.599514
    11  N   -0.859540
    12  H    0.095050
    13  H    0.074950
    14  H    0.056172
    15  H    0.017886
    16  H    0.134751
    17  H    0.089403
    18  H    0.023361
    19  H    0.034314
    20  H    0.119277
    21  H    0.118265
    22  H    0.140984
    23  H    0.130970
    24  H    0.123187
    25  H    0.106491
    26  H    0.154292
    27  H    0.165793
    28  H    0.139315
    29  H    0.448342
    30  H    0.452168
    31  H    0.452575
 Sum of ESP charges =   1.00000
 ESP charges with hydrogens summed into heavy atoms:
               1
     1  C   -0.125127
     2  C    0.074772
     3  C   -0.173064
     4  C    0.151132
     5  C    0.560648
     6  C   -0.047376
     7  C    0.438093
     8  C   -0.091045
     9  C   -0.141463
    10  C   -0.140115
    11  N    0.493545
 Charge=   1.00000 Dipole=   -10.4615     1.0470     0.9674 Tot=    10.5581
 Writing Antechamber ESP formatted file "G5.esp"
 -----------------------------------------------------------------

              Electrostatic Properties (Atomic Units)

 -----------------------------------------------------------------
    Center     Electric         -------- Electric Field --------
               Potential          X             Y             Z
 -----------------------------------------------------------------
    1 Atom    -14.607117
    2 Atom    -14.585826
    3 Atom    -14.567179
    4 Atom    -14.598837
    5 Atom    -14.482528
    6 Atom    -14.556963
    7 Atom    -14.586423
    8 Atom    -14.599502
    9 Atom    -14.624219
   10 Atom    -14.634935
   11 Atom    -18.000621
   12 Atom     -1.000110
   13 Atom     -1.023564
   14 Atom     -0.999486
   15 Atom     -0.961543
   16 Atom     -0.950213
   17 Atom     -0.978998
   18 Atom     -1.015317
   19 Atom     -0.920483
   20 Atom     -0.995693
   21 Atom     -0.977655
   22 Atom     -1.005905
   23 Atom     -1.021859
   24 Atom     -1.023391
   25 Atom     -1.003677
   26 Atom     -1.029691
   27 Atom     -1.025914
   28 Atom     -1.030695
   29 Atom     -0.743256
   30 Atom     -0.747616
   31 Atom     -0.741628
 -----------------------------------------------------------------

 Test job not archived.
 1\1\GINC-CPU190\SP\RHF\6-31G(d,p)\C10H20N1(1+)\FEBRERMA\05-Feb-2024\0\
 \# HF/6-31G** SCRF=(Solvent=Water) POP=MK iop(6/50=1) geom=allcheck gu
 ess=read\\G5\\1,1\C,0,7.6105273215,38.9715600439,29.9368936981\C,0,8.5
 536170216,40.11054219,30.4441877295\C,0,8.9830839513,37.2608833677,31.
 0813885211\C,0,8.582274866,37.8060023016,29.6858866798\C,0,9.970869637
 6,38.3516379818,31.5968178077\C,0,9.9421393309,39.4264698172,30.465882
 6631\C,0,9.882901367,38.5197152512,29.1736622354\C,0,11.0957665019,40.
 4304665704,30.54445593\C,0,11.0804423215,37.5695426801,28.96680177\C,0
 ,9.7047971104,39.2658581084,27.8406592638\N,0,9.5346103181,38.88636941
 45,32.9753444418\H,0,6.8410039649,38.7236293465,30.6742448237\H,0,7.09
 91501105,39.2710683835,29.0198479269\H,0,8.5317984989,40.9579867979,29
 .7590833184\H,0,8.2362695998,40.5032472015,31.4213598452\H,0,8.1144046
 983,37.1066792885,31.732178787\H,0,9.4925536739,36.298969145,30.987361
 991\H,0,8.1724609696,37.0376864517,29.0260181087\H,0,10.9694971923,37.
 9443535901,31.7480997292\H,0,12.0690254849,39.9274745783,30.5588036388
 \H,0,11.0466021451,41.0532636953,31.447405226\H,0,11.0832103932,41.103
 9326779,29.6842754993\H,0,11.9555743427,38.1201689236,28.6105860109\H,
 0,10.8282264261,36.8034012373,28.2283123889\H,0,11.4008148109,37.03950
 35887,29.8694931581\H,0,10.6405798788,39.7417983927,27.5345176242\H,0,
 8.9518109939,40.0565228967,27.8707034368\H,0,9.3985950857,38.561678052
 ,27.0620111763\H,0,8.7897434531,38.3098794681,33.3777968578\H,0,9.1823
 870824,39.8479107766,32.8983134914\H,0,10.3092614474,38.8943057812,33.
 6451092209\\Version=ES64L-G16RevA.03\State=1-A\HF=-444.6715718\RMSD=7.
 065e-09\Dipole=-0.0426729,0.0315209,4.1548489\Quadrupole=-7.8473545,-7
 .5108742,15.3582286,-0.0456351,-0.2114941,0.4105736\PG=C01 [X(C10H20N1
 )]\\@


 MANHOOD BEGINS BY TRYING TO SHAVE FACE,
 AND ENDS BY TRYING TO SAVE FACE.
 Job cpu time:       0 days  0 hours  3 minutes 11.8 seconds.
 Elapsed time:       0 days  0 hours  0 minutes 25.2 seconds.
 File lengths (MBytes):  RWF=     97 Int=      0 D2E=      0 Chk=      8 Scr=      1
 Normal termination of Gaussian 16 at Mon Feb  5 16:01:33 2024.
