 Entering Gaussian System, Link 0=g16
 Initial command:
 /opt/ebsofts/Gaussian/g16/l1.exe "/scratch/Gau-1069111.inp" -scrdir="/scratch/"
 Entering Link 1 = /opt/ebsofts/Gaussian/g16/l1.exe PID=   1069115.
  
 Copyright (c) 1988,1990,1992,1993,1995,1998,2003,2009,2016,
            Gaussian, Inc.  All Rights Reserved.
  
 This is part of the Gaussian(R) 16 program.  It is based on
 the Gaussian(R) 09 system (copyright 2009, Gaussian, Inc.),
 the Gaussian(R) 03 system (copyright 2003, Gaussian, Inc.),
 the Gaussian(R) 98 system (copyright 1998, Gaussian, Inc.),
 the Gaussian(R) 94 system (copyright 1995, Gaussian, Inc.),
 the Gaussian 92(TM) system (copyright 1992, Gaussian, Inc.),
 the Gaussian 90(TM) system (copyright 1990, Gaussian, Inc.),
 the Gaussian 88(TM) system (copyright 1988, Gaussian, Inc.),
 the Gaussian 86(TM) system (copyright 1986, Carnegie Mellon
 University), and the Gaussian 82(TM) system (copyright 1983,
 Carnegie Mellon University). Gaussian is a federally registered
 trademark of Gaussian, Inc.
  
 This software contains proprietary and confidential information,
 including trade secrets, belonging to Gaussian, Inc.
  
 This software is provided under written license and may be
 used, copied, transmitted, or stored only in accord with that
 written license.
  
 The following legend is applicable only to US Government
 contracts under FAR:
  
                    RESTRICTED RIGHTS LEGEND
  
 Use, reproduction and disclosure by the US Government is
 subject to restrictions as set forth in subparagraphs (a)
 and (c) of the Commercial Computer Software - Restricted
 Rights clause in FAR 52.227-19.
  
 Gaussian, Inc.
 340 Quinnipiac St., Bldg. 40, Wallingford CT 06492
  
  
 ---------------------------------------------------------------
 Warning -- This program may not be used in any manner that
 competes with the business of Gaussian, Inc. or will provide
 assistance to any competitor of Gaussian, Inc.  The licensee
 of this program is prohibited from giving any competitor of
 Gaussian, Inc. access to this program.  By using this program,
 the user acknowledges that Gaussian, Inc. is engaged in the
 business of creating and licensing software in the field of
 computational chemistry and represents and warrants to the
 licensee that it is not a competitor of Gaussian, Inc. and that
 it will not use this program in any manner prohibited above.
 ---------------------------------------------------------------
  

 Cite this work as:
 Gaussian 16, Revision A.03,
 M. J. Frisch, G. W. Trucks, H. B. Schlegel, G. E. Scuseria, 
 M. A. Robb, J. R. Cheeseman, G. Scalmani, V. Barone, 
 G. A. Petersson, H. Nakatsuji, X. Li, M. Caricato, A. V. Marenich, 
 J. Bloino, B. G. Janesko, R. Gomperts, B. Mennucci, H. P. Hratchian, 
 J. V. Ortiz, A. F. Izmaylov, J. L. Sonnenberg, D. Williams-Young, 
 F. Ding, F. Lipparini, F. Egidi, J. Goings, B. Peng, A. Petrone, 
 T. Henderson, D. Ranasinghe, V. G. Zakrzewski, J. Gao, N. Rega, 
 G. Zheng, W. Liang, M. Hada, M. Ehara, K. Toyota, R. Fukuda, 
 J. Hasegawa, M. Ishida, T. Nakajima, Y. Honda, O. Kitao, H. Nakai, 
 T. Vreven, K. Throssell, J. A. Montgomery, Jr., J. E. Peralta, 
 F. Ogliaro, M. J. Bearpark, J. J. Heyd, E. N. Brothers, K. N. Kudin, 
 V. N. Staroverov, T. A. Keith, R. Kobayashi, J. Normand, 
 K. Raghavachari, A. P. Rendell, J. C. Burant, S. S. Iyengar, 
 J. Tomasi, M. Cossi, J. M. Millam, M. Klene, C. Adamo, R. Cammi, 
 J. W. Ochterski, R. L. Martin, K. Morokuma, O. Farkas, 
 J. B. Foresman, and D. J. Fox, Gaussian, Inc., Wallingford CT, 2016.
 
 ******************************************
 Gaussian 16:  ES64L-G16RevA.03 25-Dec-2016
                 5-Feb-2024 
 ******************************************
 %Chk=G4.chk
 %nprocshared=8
 Will use up to    8 processors via shared memory.
 %mem=1GB
 --------------------------------
 # B3LYP/6-31G** opt=Modredundant
 --------------------------------
 1/18=120,19=15,26=3,38=1/1,3;
 2/9=110,12=2,17=6,18=5,40=1/2;
 3/5=1,6=6,7=101,11=2,25=1,30=1,71=1,74=-5/1,2,3;
 4//1;
 5/5=2,38=5/2;
 6/7=2,8=2,9=2,10=2,28=1/1;
 7//1,2,3,16;
 1/18=20,19=15,26=3/3(2);
 2/9=110/2;
 99//99;
 2/9=110/2;
 3/5=1,6=6,7=101,11=2,25=1,30=1,71=1,74=-5/1,2,3;
 4/5=5,16=3,69=1/1;
 5/5=2,38=5/2;
 7//1,2,3,16;
 1/18=20,19=15,26=3/3(-5);
 2/9=110/2;
 6/7=2,8=2,9=2,10=2,19=2,28=1/1;
 99/9=1/99;
 --
 G4
 --
 Symbolic Z-matrix:
 Charge =  1 Multiplicity = 1
 C                    -0.0891   -1.0562   -0.2399 
 C                    -0.9186   -1.4547   -1.3105 
 C                     0.6277   -2.0074    0.4866 
 C                     0.4608   -3.3277    0.1164 
 C                    -0.2917   -3.7199   -0.9719 
 C                    -1.0167   -2.8      -1.6941 
 C                     2.2238   -5.3745   -1.376 
 C                     1.6321   -1.6753    1.5584 
 C                     3.5684   -5.1208   -0.7342 
 C                     3.4996   -3.9015    0.1769 
 C                     0.2074   -4.9869    1.9395 
 C                     0.1016   -3.963     3.0727 
 C                     1.0085   -5.4519   -0.4495 
 C                     2.4781   -4.1344    1.2967 
 C                     2.295    -2.9133    2.2372 
 C                     1.0902   -4.5099    0.7639 
 C                     1.4051   -2.4578    4.5868 
 N                     1.465    -3.4199    3.4304 
 O                     2.1291   -5.5773   -2.587 
 O                    -0.1634   -5.0641   -1.2321 
 O                    -1.7742   -3.1664   -2.7565 
 H                    -0.0004    0.0001    0.0004 
 H                    -1.4657   -0.6947   -1.8637 
 H                     2.4358   -1.1051    1.0733 
 H                     1.1817   -1.0024    2.2938 
 H                     3.8644   -6.0186   -0.1813 
 H                     4.3087   -4.9489   -1.5229 
 H                     4.4878   -3.719     0.6152 
 H                     3.2483   -3.0146   -0.4159 
 H                     0.6266   -5.9185    2.3427 
 H                    -0.8073   -5.232     1.5996 
 H                    -0.5389   -3.1157    2.807 
 H                    -0.3062   -4.4352    3.9732 
 H                     0.8969   -6.4992   -0.1454 
 H                     2.8689   -4.976     1.8882 
 H                     3.2621   -2.6233    2.6654 
 H                     0.8531   -1.5752    4.2587 
 H                     0.8926   -2.9575    5.4111 
 H                     2.4301   -2.2002    4.8605 
 H                     1.9922   -4.2244    3.7968 
 H                    -2.1953   -2.3886   -3.161 
 
 The following ModRedundant input section has been read:
 D    *       *       *       *    F                                           
 

 GradGradGradGradGradGradGradGradGradGradGradGradGradGradGradGradGradGrad
 Berny optimization.
 Initialization pass.
                           ----------------------------
                           !    Initial Parameters    !
                           ! (Angstroms and Degrees)  !
 --------------------------                            --------------------------
 ! Name  Definition              Value          Derivative Info.                !
 --------------------------------------------------------------------------------
 ! R1    R(1,2)                  1.4118         estimate D2E/DX2                !
 ! R2    R(1,3)                  1.3951         estimate D2E/DX2                !
 ! R3    R(1,22)                 1.0869         estimate D2E/DX2                !
 ! R4    R(2,6)                  1.4024         estimate D2E/DX2                !
 ! R5    R(2,23)                 1.0876         estimate D2E/DX2                !
 ! R6    R(3,4)                  1.3813         estimate D2E/DX2                !
 ! R7    R(3,8)                  1.5059         estimate D2E/DX2                !
 ! R8    R(4,5)                  1.38           estimate D2E/DX2                !
 ! R9    R(4,16)                 1.4876         estimate D2E/DX2                !
 ! R10   R(5,6)                  1.376          estimate D2E/DX2                !
 ! R11   R(5,20)                 1.3752         estimate D2E/DX2                !
 ! R12   R(6,21)                 1.3553         estimate D2E/DX2                !
 ! R13   R(7,9)                  1.5114         estimate D2E/DX2                !
 ! R14   R(7,13)                 1.5301         estimate D2E/DX2                !
 ! R15   R(7,19)                 1.2315         estimate D2E/DX2                !
 ! R16   R(8,15)                 1.5598         estimate D2E/DX2                !
 ! R17   R(8,24)                 1.0984         estimate D2E/DX2                !
 ! R18   R(8,25)                 1.0938         estimate D2E/DX2                !
 ! R19   R(9,10)                 1.5237         estimate D2E/DX2                !
 ! R20   R(9,26)                 1.0952         estimate D2E/DX2                !
 ! R21   R(9,27)                 1.0953         estimate D2E/DX2                !
 ! R22   R(10,14)                1.5335         estimate D2E/DX2                !
 ! R23   R(10,28)                1.0963         estimate D2E/DX2                !
 ! R24   R(10,29)                1.096          estimate D2E/DX2                !
 ! R25   R(11,12)                1.5309         estimate D2E/DX2                !
 ! R26   R(11,16)                1.5456         estimate D2E/DX2                !
 ! R27   R(11,30)                1.0983         estimate D2E/DX2                !
 ! R28   R(11,31)                1.0978         estimate D2E/DX2                !
 ! R29   R(12,18)                1.5106         estimate D2E/DX2                !
 ! R30   R(12,32)                1.0949         estimate D2E/DX2                !
 ! R31   R(12,33)                1.0955         estimate D2E/DX2                !
 ! R32   R(13,16)                1.5383         estimate D2E/DX2                !
 ! R33   R(13,20)                1.4616         estimate D2E/DX2                !
 ! R34   R(13,34)                1.0963         estimate D2E/DX2                !
 ! R35   R(14,15)                1.5521         estimate D2E/DX2                !
 ! R36   R(14,16)                1.5333         estimate D2E/DX2                !
 ! R37   R(14,35)                1.1004         estimate D2E/DX2                !
 ! R38   R(15,18)                1.5392         estimate D2E/DX2                !
 ! R39   R(15,36)                1.0967         estimate D2E/DX2                !
 ! R40   R(17,18)                1.5055         estimate D2E/DX2                !
 ! R41   R(17,37)                1.0915         estimate D2E/DX2                !
 ! R42   R(17,38)                1.0917         estimate D2E/DX2                !
 ! R43   R(17,39)                1.0917         estimate D2E/DX2                !
 ! R44   R(18,40)                1.0293         estimate D2E/DX2                !
 ! R45   R(21,41)                0.9726         estimate D2E/DX2                !
 ! A1    A(2,1,3)              120.287          estimate D2E/DX2                !
 ! A2    A(2,1,22)             119.336          estimate D2E/DX2                !
 ! A3    A(3,1,22)             120.3673         estimate D2E/DX2                !
 ! A4    A(1,2,6)              121.2872         estimate D2E/DX2                !
 ! A5    A(1,2,23)             118.9489         estimate D2E/DX2                !
 ! A6    A(6,2,23)             119.7368         estimate D2E/DX2                !
 ! A7    A(1,3,4)              116.746          estimate D2E/DX2                !
 ! A8    A(1,3,8)              124.2592         estimate D2E/DX2                !
 ! A9    A(4,3,8)              118.8231         estimate D2E/DX2                !
 ! A10   A(3,4,5)              123.2895         estimate D2E/DX2                !
 ! A11   A(3,4,16)             126.2855         estimate D2E/DX2                !
 ! A12   A(5,4,16)             110.3714         estimate D2E/DX2                !
 ! A13   A(4,5,6)              120.7442         estimate D2E/DX2                !
 ! A14   A(4,5,20)             112.095          estimate D2E/DX2                !
 ! A15   A(6,5,20)             127.1085         estimate D2E/DX2                !
 ! A16   A(2,6,5)              117.4453         estimate D2E/DX2                !
 ! A17   A(2,6,21)             120.8559         estimate D2E/DX2                !
 ! A18   A(5,6,21)             121.6808         estimate D2E/DX2                !
 ! A19   A(9,7,13)             117.2561         estimate D2E/DX2                !
 ! A20   A(9,7,19)             120.9061         estimate D2E/DX2                !
 ! A21   A(13,7,19)            121.7362         estimate D2E/DX2                !
 ! A22   A(3,8,15)             114.7183         estimate D2E/DX2                !
 ! A23   A(3,8,24)             106.7491         estimate D2E/DX2                !
 ! A24   A(3,8,25)             109.8482         estimate D2E/DX2                !
 ! A25   A(15,8,24)            107.0538         estimate D2E/DX2                !
 ! A26   A(15,8,25)            111.7579         estimate D2E/DX2                !
 ! A27   A(24,8,25)            106.1929         estimate D2E/DX2                !
 ! A28   A(7,9,10)             110.3703         estimate D2E/DX2                !
 ! A29   A(7,9,26)             108.4959         estimate D2E/DX2                !
 ! A30   A(7,9,27)             108.7767         estimate D2E/DX2                !
 ! A31   A(10,9,26)            111.4907         estimate D2E/DX2                !
 ! A32   A(10,9,27)            109.6039         estimate D2E/DX2                !
 ! A33   A(26,9,27)            108.0306         estimate D2E/DX2                !
 ! A34   A(9,10,14)            110.1935         estimate D2E/DX2                !
 ! A35   A(9,10,28)            109.3642         estimate D2E/DX2                !
 ! A36   A(9,10,29)            109.5425         estimate D2E/DX2                !
 ! A37   A(14,10,28)           109.4975         estimate D2E/DX2                !
 ! A38   A(14,10,29)           111.4158         estimate D2E/DX2                !
 ! A39   A(28,10,29)           106.7508         estimate D2E/DX2                !
 ! A40   A(12,11,16)           113.333          estimate D2E/DX2                !
 ! A41   A(12,11,30)           108.7809         estimate D2E/DX2                !
 ! A42   A(12,11,31)           108.3379         estimate D2E/DX2                !
 ! A43   A(16,11,30)           108.8451         estimate D2E/DX2                !
 ! A44   A(16,11,31)           111.1818         estimate D2E/DX2                !
 ! A45   A(30,11,31)           106.086          estimate D2E/DX2                !
 ! A46   A(11,12,18)           110.6936         estimate D2E/DX2                !
 ! A47   A(11,12,32)           112.2333         estimate D2E/DX2                !
 ! A48   A(11,12,33)           110.2359         estimate D2E/DX2                !
 ! A49   A(18,12,32)           107.8928         estimate D2E/DX2                !
 ! A50   A(18,12,33)           107.2357         estimate D2E/DX2                !
 ! A51   A(32,12,33)           108.3775         estimate D2E/DX2                !
 ! A52   A(7,13,16)            113.8569         estimate D2E/DX2                !
 ! A53   A(7,13,20)            107.409          estimate D2E/DX2                !
 ! A54   A(7,13,34)            107.2861         estimate D2E/DX2                !
 ! A55   A(16,13,20)           107.6056         estimate D2E/DX2                !
 ! A56   A(16,13,34)           111.8152         estimate D2E/DX2                !
 ! A57   A(20,13,34)           108.6866         estimate D2E/DX2                !
 ! A58   A(10,14,15)           113.676          estimate D2E/DX2                !
 ! A59   A(10,14,16)           112.7302         estimate D2E/DX2                !
 ! A60   A(10,14,35)           105.7894         estimate D2E/DX2                !
 ! A61   A(15,14,16)           107.2434         estimate D2E/DX2                !
 ! A62   A(15,14,35)           108.5345         estimate D2E/DX2                !
 ! A63   A(16,14,35)           108.7198         estimate D2E/DX2                !
 ! A64   A(8,15,14)            114.2591         estimate D2E/DX2                !
 ! A65   A(8,15,18)            111.6795         estimate D2E/DX2                !
 ! A66   A(8,15,36)            109.5615         estimate D2E/DX2                !
 ! A67   A(14,15,18)           105.9261         estimate D2E/DX2                !
 ! A68   A(14,15,36)           109.913          estimate D2E/DX2                !
 ! A69   A(18,15,36)           105.0623         estimate D2E/DX2                !
 ! A70   A(4,16,11)            109.552          estimate D2E/DX2                !
 ! A71   A(4,16,13)             96.9407         estimate D2E/DX2                !
 ! A72   A(4,16,14)            109.852          estimate D2E/DX2                !
 ! A73   A(11,16,13)           112.3733         estimate D2E/DX2                !
 ! A74   A(11,16,14)           109.1641         estimate D2E/DX2                !
 ! A75   A(13,16,14)           118.172          estimate D2E/DX2                !
 ! A76   A(18,17,37)           107.8175         estimate D2E/DX2                !
 ! A77   A(18,17,38)           107.8268         estimate D2E/DX2                !
 ! A78   A(18,17,39)           107.8185         estimate D2E/DX2                !
 ! A79   A(37,17,38)           111.0805         estimate D2E/DX2                !
 ! A80   A(37,17,39)           111.0621         estimate D2E/DX2                !
 ! A81   A(38,17,39)           111.0669         estimate D2E/DX2                !
 ! A82   A(12,18,15)           114.9271         estimate D2E/DX2                !
 ! A83   A(12,18,17)           112.0705         estimate D2E/DX2                !
 ! A84   A(12,18,40)           105.4016         estimate D2E/DX2                !
 ! A85   A(15,18,17)           113.9892         estimate D2E/DX2                !
 ! A86   A(15,18,40)           104.8923         estimate D2E/DX2                !
 ! A87   A(17,18,40)           104.2673         estimate D2E/DX2                !
 ! A88   A(5,20,13)            103.465          estimate D2E/DX2                !
 ! A89   A(6,21,41)            110.5987         estimate D2E/DX2                !
 ! D1    D(3,1,2,6)             -1.7507         Frozen                          !
 ! D2    D(3,1,2,23)          -179.8513         Frozen                          !
 ! D3    D(22,1,2,6)           177.118          Frozen                          !
 ! D4    D(22,1,2,23)           -0.9826         Frozen                          !
 ! D5    D(2,1,3,4)             -1.0377         Frozen                          !
 ! D6    D(2,1,3,8)            174.1295         Frozen                          !
 ! D7    D(22,1,3,4)          -179.8946         Frozen                          !
 ! D8    D(22,1,3,8)            -4.7275         Frozen                          !
 ! D9    D(1,2,6,5)              1.1207         Frozen                          !
 ! D10   D(1,2,6,21)          -177.3588         Frozen                          !
 ! D11   D(23,2,6,5)           179.2066         Frozen                          !
 ! D12   D(23,2,6,21)            0.7271         Frozen                          !
 ! D13   D(1,3,4,5)              4.6063         Frozen                          !
 ! D14   D(1,3,4,16)          -178.3175         Frozen                          !
 ! D15   D(8,3,4,5)           -170.835          Frozen                          !
 ! D16   D(8,3,4,16)             6.2411         Frozen                          !
 ! D17   D(1,3,8,15)           179.4856         Frozen                          !
 ! D18   D(1,3,8,24)           -62.11           Frozen                          !
 ! D19   D(1,3,8,25)            52.6144         Frozen                          !
 ! D20   D(4,3,8,15)            -5.4408         Frozen                          !
 ! D21   D(4,3,8,24)           112.9637         Frozen                          !
 ! D22   D(4,3,8,25)          -132.3119         Frozen                          !
 ! D23   D(3,4,5,6)             -5.391          Frozen                          !
 ! D24   D(3,4,5,20)           172.1615         Frozen                          !
 ! D25   D(16,4,5,6)           177.1228         Frozen                          !
 ! D26   D(16,4,5,20)           -5.3248         Frozen                          !
 ! D27   D(3,4,16,11)           87.1394         Frozen                          !
 ! D28   D(3,4,16,13)         -156.1076         Frozen                          !
 ! D29   D(3,4,16,14)          -32.7675         Frozen                          !
 ! D30   D(5,4,16,11)          -95.4674         Frozen                          !
 ! D31   D(5,4,16,13)           21.2856         Frozen                          !
 ! D32   D(5,4,16,14)          144.6256         Frozen                          !
 ! D33   D(4,5,6,2)              2.3064         Frozen                          !
 ! D34   D(4,5,6,21)          -179.2274         Frozen                          !
 ! D35   D(20,5,6,2)          -174.8497         Frozen                          !
 ! D36   D(20,5,6,21)            3.6165         Frozen                          !
 ! D37   D(4,5,20,13)          -14.6875         Frozen                          !
 ! D38   D(6,5,20,13)          162.6747         Frozen                          !
 ! D39   D(2,6,21,41)           -0.0019         Frozen                          !
 ! D40   D(5,6,21,41)         -178.4163         Frozen                          !
 ! D41   D(13,7,9,10)          -51.6687         Frozen                          !
 ! D42   D(13,7,9,26)           70.7622         Frozen                          !
 ! D43   D(13,7,9,27)         -171.9502         Frozen                          !
 ! D44   D(19,7,9,10)          131.9343         Frozen                          !
 ! D45   D(19,7,9,26)         -105.6348         Frozen                          !
 ! D46   D(19,7,9,27)           11.6527         Frozen                          !
 ! D47   D(9,7,13,16)           34.4747         Frozen                          !
 ! D48   D(9,7,13,20)          153.5044         Frozen                          !
 ! D49   D(9,7,13,34)          -89.8012         Frozen                          !
 ! D50   D(19,7,13,16)        -149.1602         Frozen                          !
 ! D51   D(19,7,13,20)         -30.1305         Frozen                          !
 ! D52   D(19,7,13,34)          86.5639         Frozen                          !
 ! D53   D(3,8,15,14)           32.5763         Frozen                          !
 ! D54   D(3,8,15,18)          -87.6247         Frozen                          !
 ! D55   D(3,8,15,36)          156.3968         Frozen                          !
 ! D56   D(24,8,15,14)         -85.6564         Frozen                          !
 ! D57   D(24,8,15,18)         154.1426         Frozen                          !
 ! D58   D(24,8,15,36)          38.1642         Frozen                          !
 ! D59   D(25,8,15,14)         158.4625         Frozen                          !
 ! D60   D(25,8,15,18)          38.2615         Frozen                          !
 ! D61   D(25,8,15,36)         -77.717          Frozen                          !
 ! D62   D(7,9,10,14)           60.8788         Frozen                          !
 ! D63   D(7,9,10,28)         -178.7093         Frozen                          !
 ! D64   D(7,9,10,29)          -62.0352         Frozen                          !
 ! D65   D(26,9,10,14)         -59.7767         Frozen                          !
 ! D66   D(26,9,10,28)          60.6352         Frozen                          !
 ! D67   D(26,9,10,29)         177.3093         Frozen                          !
 ! D68   D(27,9,10,14)        -179.3377         Frozen                          !
 ! D69   D(27,9,10,28)         -58.9257         Frozen                          !
 ! D70   D(27,9,10,29)          57.7484         Frozen                          !
 ! D71   D(9,10,14,15)        -177.3383         Frozen                          !
 ! D72   D(9,10,14,16)         -55.0203         Frozen                          !
 ! D73   D(9,10,14,35)          63.6698         Frozen                          !
 ! D74   D(28,10,14,15)         62.3301         Frozen                          !
 ! D75   D(28,10,14,16)       -175.3519         Frozen                          !
 ! D76   D(28,10,14,35)        -56.6619         Frozen                          !
 ! D77   D(29,10,14,15)        -55.5283         Frozen                          !
 ! D78   D(29,10,14,16)         66.7896         Frozen                          !
 ! D79   D(29,10,14,35)       -174.5203         Frozen                          !
 ! D80   D(16,11,12,18)        -46.9533         Frozen                          !
 ! D81   D(16,11,12,32)         73.6583         Frozen                          !
 ! D82   D(16,11,12,33)       -165.4315         Frozen                          !
 ! D83   D(30,11,12,18)         74.2615         Frozen                          !
 ! D84   D(30,11,12,32)       -165.127          Frozen                          !
 ! D85   D(30,11,12,33)        -44.2168         Frozen                          !
 ! D86   D(31,11,12,18)       -170.8387         Frozen                          !
 ! D87   D(31,11,12,32)        -50.2272         Frozen                          !
 ! D88   D(31,11,12,33)         70.683          Frozen                          !
 ! D89   D(12,11,16,4)         -64.6026         Frozen                          !
 ! D90   D(12,11,16,13)       -171.153          Frozen                          !
 ! D91   D(12,11,16,14)         55.7245         Frozen                          !
 ! D92   D(30,11,16,4)         174.2187         Frozen                          !
 ! D93   D(30,11,16,13)         67.6683         Frozen                          !
 ! D94   D(30,11,16,14)        -65.4542         Frozen                          !
 ! D95   D(31,11,16,4)          57.7156         Frozen                          !
 ! D96   D(31,11,16,13)        -48.8348         Frozen                          !
 ! D97   D(31,11,16,14)        178.0427         Frozen                          !
 ! D98   D(11,12,18,15)         50.4767         Frozen                          !
 ! D99   D(11,12,18,17)       -177.2848         Frozen                          !
 ! D100  D(11,12,18,40)        -64.4836         Frozen                          !
 ! D101  D(32,12,18,15)        -72.6838         Frozen                          !
 ! D102  D(32,12,18,17)         59.5548         Frozen                          !
 ! D103  D(32,12,18,40)        172.3559         Frozen                          !
 ! D104  D(33,12,18,15)        170.7625         Frozen                          !
 ! D105  D(33,12,18,17)        -56.999          Frozen                          !
 ! D106  D(33,12,18,40)         55.8022         Frozen                          !
 ! D107  D(7,13,16,4)           88.9532         Frozen                          !
 ! D108  D(7,13,16,11)        -156.5473         Frozen                          !
 ! D109  D(7,13,16,14)         -28.0003         Frozen                          !
 ! D110  D(20,13,16,4)         -29.9644         Frozen                          !
 ! D111  D(20,13,16,11)         84.535          Frozen                          !
 ! D112  D(20,13,16,14)       -146.918          Frozen                          !
 ! D113  D(34,13,16,4)        -149.2448         Frozen                          !
 ! D114  D(34,13,16,11)        -34.7453         Frozen                          !
 ! D115  D(34,13,16,14)         93.8017         Frozen                          !
 ! D116  D(7,13,20,5)          -94.2989         Frozen                          !
 ! D117  D(16,13,20,5)          28.6709         Frozen                          !
 ! D118  D(34,13,20,5)         149.9293         Frozen                          !
 ! D119  D(10,14,15,8)          67.4485         Frozen                          !
 ! D120  D(10,14,15,18)       -169.1871         Frozen                          !
 ! D121  D(10,14,15,36)        -56.1831         Frozen                          !
 ! D122  D(16,14,15,8)         -57.8511         Frozen                          !
 ! D123  D(16,14,15,18)         65.5133         Frozen                          !
 ! D124  D(16,14,15,36)        178.5173         Frozen                          !
 ! D125  D(35,14,15,8)        -175.1407         Frozen                          !
 ! D126  D(35,14,15,18)        -51.7762         Frozen                          !
 ! D127  D(35,14,15,36)         61.2277         Frozen                          !
 ! D128  D(10,14,16,4)         -70.617          Frozen                          !
 ! D129  D(10,14,16,11)        169.2402         Frozen                          !
 ! D130  D(10,14,16,13)         39.2054         Frozen                          !
 ! D131  D(15,14,16,4)          55.2492         Frozen                          !
 ! D132  D(15,14,16,11)        -64.8935         Frozen                          !
 ! D133  D(15,14,16,13)        165.0717         Frozen                          !
 ! D134  D(35,14,16,4)         172.4174         Frozen                          !
 ! D135  D(35,14,16,11)         52.2747         Frozen                          !
 ! D136  D(35,14,16,13)        -77.7601         Frozen                          !
 ! D137  D(8,15,18,12)          64.937          Frozen                          !
 ! D138  D(8,15,18,17)         -66.3887         Frozen                          !
 ! D139  D(8,15,18,40)        -179.8085         Frozen                          !
 ! D140  D(14,15,18,12)        -60.0382         Frozen                          !
 ! D141  D(14,15,18,17)        168.6361         Frozen                          !
 ! D142  D(14,15,18,40)         55.2163         Frozen                          !
 ! D143  D(36,15,18,12)       -176.3707         Frozen                          !
 ! D144  D(36,15,18,17)         52.3036         Frozen                          !
 ! D145  D(36,15,18,40)        -61.1162         Frozen                          !
 ! D146  D(37,17,18,12)        -66.4938         Frozen                          !
 ! D147  D(37,17,18,15)         66.2107         Frozen                          !
 ! D148  D(37,17,18,40)       -179.9975         Frozen                          !
 ! D149  D(38,17,18,12)         53.5202         Frozen                          !
 ! D150  D(38,17,18,15)       -173.7753         Frozen                          !
 ! D151  D(38,17,18,40)        -59.9835         Frozen                          !
 ! D152  D(39,17,18,12)        173.5186         Frozen                          !
 ! D153  D(39,17,18,15)        -53.7768         Frozen                          !
 ! D154  D(39,17,18,40)         60.0149         Frozen                          !
 --------------------------------------------------------------------------------
 Trust Radius=3.00D-01 FncErr=1.00D-07 GrdErr=1.00D-06 EigMax=2.50D+02 EigMin=1.00D-04
 Number of steps in this run=    246 maximum allowed number of steps=    246.
 GradGradGradGradGradGradGradGradGradGradGradGradGradGradGradGradGradGrad

                          Input orientation:                          
 ---------------------------------------------------------------------
 Center     Atomic      Atomic             Coordinates (Angstroms)
 Number     Number       Type             X           Y           Z
 ---------------------------------------------------------------------
      1          6           0       -0.089100   -1.056200   -0.239900
      2          6           0       -0.918600   -1.454700   -1.310500
      3          6           0        0.627700   -2.007400    0.486600
      4          6           0        0.460800   -3.327700    0.116400
      5          6           0       -0.291700   -3.719900   -0.971900
      6          6           0       -1.016700   -2.800000   -1.694100
      7          6           0        2.223800   -5.374500   -1.376000
      8          6           0        1.632100   -1.675300    1.558400
      9          6           0        3.568400   -5.120800   -0.734200
     10          6           0        3.499600   -3.901500    0.176900
     11          6           0        0.207400   -4.986900    1.939500
     12          6           0        0.101600   -3.963000    3.072700
     13          6           0        1.008500   -5.451900   -0.449500
     14          6           0        2.478100   -4.134400    1.296700
     15          6           0        2.295000   -2.913300    2.237200
     16          6           0        1.090200   -4.509900    0.763900
     17          6           0        1.405100   -2.457800    4.586800
     18          7           0        1.465000   -3.419900    3.430400
     19          8           0        2.129100   -5.577300   -2.587000
     20          8           0       -0.163400   -5.064100   -1.232100
     21          8           0       -1.774200   -3.166400   -2.756500
     22          1           0       -0.000400    0.000100    0.000400
     23          1           0       -1.465700   -0.694700   -1.863700
     24          1           0        2.435800   -1.105100    1.073300
     25          1           0        1.181700   -1.002400    2.293800
     26          1           0        3.864400   -6.018600   -0.181300
     27          1           0        4.308700   -4.948900   -1.522900
     28          1           0        4.487800   -3.719000    0.615200
     29          1           0        3.248300   -3.014600   -0.415900
     30          1           0        0.626600   -5.918500    2.342700
     31          1           0       -0.807300   -5.232000    1.599600
     32          1           0       -0.538900   -3.115700    2.807000
     33          1           0       -0.306200   -4.435200    3.973200
     34          1           0        0.896900   -6.499200   -0.145400
     35          1           0        2.868900   -4.976000    1.888200
     36          1           0        3.262100   -2.623300    2.665400
     37          1           0        0.853100   -1.575200    4.258700
     38          1           0        0.892600   -2.957500    5.411100
     39          1           0        2.430100   -2.200200    4.860500
     40          1           0        1.992200   -4.224400    3.796800
     41          1           0       -2.195300   -2.388600   -3.161000
 ---------------------------------------------------------------------
                    Distance matrix (angstroms):
                    1          2          3          4          5
     1  C    0.000000
     2  C    1.411757   0.000000
     3  C    1.395129   2.434356   0.000000
     4  C    2.364118   2.728904   1.381338   0.000000
     5  C    2.769868   2.374613   2.430057   1.380027   0.000000
     6  C    2.452749   1.402357   2.843891   2.395701   1.376014
     7  C    5.028712   5.024321   4.165834   3.086230   3.037884
     8  C    2.565092   3.845169   1.505943   2.486309   3.779393
     9  C    5.490229   5.822850   4.453238   3.687263   4.113319
    10  C    4.598720   5.264948   3.454177   3.093091   3.965687
    11  C    4.504231   4.930194   3.341406   2.478074   3.214131
    12  C    4.411255   5.152166   3.284671   3.045052   4.070942
    13  C    4.535508   4.520248   3.589690   2.265490   2.227834
    14  C    4.292665   5.051322   2.933321   2.472523   3.604185
    15  C    3.907528   5.004090   2.581694   2.834398   4.199993
    16  C    3.785024   4.203886   2.559943   1.487615   2.355154
    17  C    5.243486   6.417471   4.197482   4.651119   5.947367
    18  N    4.633941   5.658595   3.370784   3.464032   4.749341
    19  O    5.556045   5.283347   4.944229   3.892595   3.452355
    20  O    4.129557   3.688393   3.594883   2.285424   1.375150
    21  O    3.691312   2.398517   4.198822   3.643459   2.385155
    22  H    1.086914   2.162867   2.158925   3.361609   3.855985
    23  H    2.159268   1.087634   3.410193   3.816397   3.365326
    24  H    2.846402   4.129978   2.104183   3.123497   4.296426
    25  H    2.835042   4.196047   2.140774   3.266158   4.496722
    26  H    6.344999   6.706815   5.197311   4.349030   4.814794
    27  H    6.011643   6.291201   5.122526   4.485747   4.793508
    28  H    5.363741   6.169646   4.224510   4.076597   5.036120
    29  H    3.873570   4.538354   2.948983   2.855089   3.652148
    30  H    5.551938   5.971518   4.329181   3.419963   4.082118
    31  H    4.619186   4.769598   3.700816   2.726595   3.027359
    32  H    3.705059   4.456108   2.823746   2.878137   3.834873
    33  H    5.405089   6.097204   4.350030   4.085309   4.996587
    34  H    5.532393   5.486390   4.544025   3.212030   3.133749
    35  H    5.351953   6.080822   3.974927   3.413959   4.443799
    36  H    4.703946   5.886566   3.473696   3.852384   5.202113
    37  H    4.625419   5.845462   3.803464   4.514843   5.767970
    38  H    6.042556   7.121710   5.022306   5.325162   6.536552
    39  H    5.802515   7.060510   4.734640   5.258886   6.613212
    40  H    5.537531   6.498347   4.211220   4.085903   5.311423
    41  H    3.839817   2.434437   4.628134   4.321820   3.191898
                    6          7          8          9         10
     6  C    0.000000
     7  C    4.150913   0.000000
     8  C    4.342793   4.758665   0.000000
     9  C    5.227874   1.511364   4.569107   0.000000
    10  C    5.011079   2.491765   3.217463   1.523657   0.000000
    11  C    4.414069   3.899826   3.625149   4.296850   3.888886
    12  C    5.032449   5.127085   3.141513   5.277470   4.464957
    13  C    3.561325   1.530146   4.322412   2.596877   3.000283
    14  C    4.789482   2.957337   2.613690   2.507248   1.533511
    15  C    5.141528   4.372389   1.559760   3.914565   2.583106
    16  C    3.661222   2.571333   2.993300   2.959557   2.553415
    17  C    6.740321   6.688228   3.136087   6.331230   5.091013
    18  N    5.727444   5.243827   2.564359   4.966009   3.867402
    19  O    4.290306   1.231510   5.714626   2.390156   3.510800
    20  O    2.463273   2.411593   4.742855   3.765296   4.093225
    21  O    1.355267   4.771320   5.696018   6.037611   6.079323
    22  H    3.427062   5.977279   2.810585   6.284870   5.244391
    23  H    2.159318   5.979196   4.718973   6.797668   6.253145
    24  H    4.738243   4.926641   1.098355   4.547052   3.123309
    25  H    4.895679   5.802470   1.093832   5.641484   4.273021
    26  H    6.039295   2.129258   5.184011   1.095153   2.177957
    27  H    5.745169   2.132961   5.232118   1.095281   2.154300
    28  H    6.039615   3.439659   3.636119   2.152027   1.096336
    29  H    4.457586   2.746001   2.881612   2.154033   1.095972
    30  H    5.359219   4.083591   4.430677   4.331031   4.124695
    31  H    4.099626   4.249949   4.313060   4.960417   4.726912
    32  H    4.537385   5.498380   2.889117   5.781906   4.883072
    33  H    5.941126   5.991421   4.147929   6.135323   5.401930
    34  H    4.443469   2.130725   5.168507   3.063264   3.691337
    35  H    5.715395   3.351113   3.540207   2.717949   2.116809
    36  H    6.111022   4.998008   2.186562   4.229492   2.807638
    37  H    6.358625   6.932773   2.812202   6.698745   5.392284
    38  H    7.358947   7.326576   4.127250   7.043045   5.923212
    39  H    7.429870   7.000905   3.437468   6.412979   5.096505
    40  H    6.421244   5.304171   3.411454   4.880359   3.934488
    41  H    1.926173   5.624079   6.118049   6.824552   6.772173
                   11         12         13         14         15
    11  C    0.000000
    12  C    1.530917   0.000000
    13  C    2.562286   3.930036   0.000000
    14  C    2.509188   2.971751   2.635288   0.000000
    15  C    2.957451   2.571174   3.913813   1.552144   0.000000
    16  C    1.545607   2.570406   1.538304   1.533344   2.484208
    17  C    3.852146   2.501447   5.872499   3.845397   2.553433
    18  N    2.501965   1.510552   4.403526   2.467703   1.539243
    19  O    4.952848   6.224863   2.416687   4.157750   5.513377
    20  O    3.194135   4.451286   1.461575   3.773154   4.765051
    21  O    5.412335   6.175174   4.276585   5.953781   6.446665
    22  H    5.354760   5.015535   5.562786   4.991738   4.331286
    23  H    5.973824   6.124235   5.545501   6.113364   5.990195
    24  H    4.558996   4.196866   4.821906   3.037821   2.155012
    25  H    4.117163   3.246298   5.230081   3.533311   2.212279
    26  H    4.351534   5.382627   2.923909   2.767042   4.237340
    27  H    5.367525   6.308029   3.506639   3.458996   4.726204
    28  H    4.656519   5.033646   4.030144   2.162381   2.844013
    29  H    4.322609   4.792861   3.310327   2.186357   2.820990
    30  H    1.098261   2.152326   2.856562   2.775821   3.438883
    31  H    1.097826   2.146272   2.746688   3.477115   3.925197
    32  H    2.193379   1.094876   4.296169   3.524350   2.897693
    33  H    2.168892   1.095524   4.724658   3.873817   3.477947
    34  H    2.666321   4.173845   1.096252   3.189377   4.526604
    35  H    2.662017   3.176029   3.025295   1.100403   2.169307
    36  H    3.929978   3.456798   4.773080   2.184358   1.096694
    37  H    4.175562   2.770007   6.100828   4.238346   2.820647
    38  H    4.079212   2.665488   6.370408   4.563682   3.470205
    39  H    4.608507   3.424267   6.386752   4.055133   2.721850
    40  H    2.686351   2.041328   4.528298   2.548470   2.059860
    41  H    6.207997   6.827408   5.196188   6.690260   7.041212
                   16         17         18         19         20
    16  C    0.000000
    17  C    4.350269   0.000000
    18  N    2.904961   1.505485   0.000000
    19  O    3.667041   7.856135   6.426858   0.000000
    20  O    2.421294   6.566018   5.205188   2.711952   0.000000
    21  O    4.733180   8.033313   6.988162   4.590961   2.918859
    22  H    4.702387   5.389969   5.060504   6.506673   5.214571
    23  H    5.290809   7.277291   6.636506   6.106188   4.602886
    24  H    3.674103   3.903437   3.443352   5.787265   5.267294
    25  H    3.827731   2.725059   2.686340   6.756440   5.544247
    26  H    3.296326   6.439117   5.055170   2.998901   4.270647
    27  H    3.972520   7.208669   5.912669   2.505564   4.483025
    28  H    3.491607   5.183365   4.141513   4.389855   5.182227
    29  H    2.878410   5.360450   4.258926   3.540299   4.062798
    30  H    2.166031   4.197439   2.851141   5.164868   3.759427
    31  H    2.195525   4.638347   3.434950   5.125358   2.908835
    32  H    2.961759   2.716552   2.120561   6.501764   4.500177
    33  H    3.500731   2.686106   2.112490   7.090226   5.245098
    34  H    2.195793   6.243789   4.753017   2.886109   2.089178
    35  H    2.155243   3.970703   2.602069   4.575618   4.351882
    36  H    3.448494   2.677241   2.109352   6.131681   5.734288
    37  H    4.569716   1.091484   2.112681   8.031724   6.584419
    38  H    4.903617   1.091708   2.112967   8.506579   7.048759
    39  H    4.890008   1.091739   2.112882   8.182949   7.214426
    40  H    3.177042   2.022291   1.029276   6.527019   5.535480
    41  H    5.540692   8.543774   7.609726   5.403491   3.873961
                   21         22         23         24         25
    21  O    0.000000
    22  H    4.557805   0.000000
    23  H    2.646047   2.470773   0.000000
    24  H    6.053134   2.882300   4.900622   0.000000
    25  H    6.239052   2.768041   4.938442   1.752979   0.000000
    26  H    6.823526   7.155029   7.719090   5.268529   6.203649
    27  H    6.457612   6.736571   7.180394   5.002280   6.318243
    28  H    7.133468   5.861196   7.122886   3.354554   4.596511
    29  H    5.543190   4.451491   5.449758   2.554225   3.957557
    30  H    6.272140   6.396040   7.025639   5.296546   4.947582
    31  H    4.917032   5.530226   5.745871   5.275035   4.725204
    32  H    5.699217   4.227907   5.341876   3.987113   2.773062
    33  H    7.003837   5.962260   7.028882   5.197841   4.101018
    34  H    5.006014   6.562569   6.498204   5.740188   6.020433
    35  H    6.812215   6.046341   7.155071   3.979385   4.335972
    36  H    7.419992   4.962697   6.825272   2.349997   2.663356
    37  H    7.658176   4.619865   6.605747   3.587855   2.072899
    38  H    8.594484   6.230612   7.975247   4.962798   3.691010
    39  H    8.753763   5.862527   7.915722   3.942355   3.095348
    40  H    7.632226   6.019095   7.513795   4.164645   3.646533
    41  H    0.972583   4.529671   2.254906   6.404979   6.563575
                   26         27         28         29         30
    26  H    0.000000
    27  H    1.772442   0.000000
    28  H    2.512210   2.473096   0.000000
    29  H    3.075489   2.468079   1.759462   0.000000
    30  H    4.106573   5.425942   4.767696   4.787047   0.000000
    31  H    5.061139   6.000301   5.594309   5.042519   1.754864
    32  H    6.061833   6.753361   5.516853   4.973951   3.070774
    33  H    6.095977   7.195019   5.896740   5.823811   2.393496
    34  H    3.006380   3.992658   4.604627   4.212445   2.569225
    35  H    2.522076   3.702616   2.412761   3.049576   2.474426
    36  H    4.471524   4.903636   2.627969   3.106077   4.231824
    37  H    6.966013   7.533254   5.575125   5.446168   4.752538
    38  H    7.033979   7.982216   6.042020   6.285421   4.272395
    39  H    6.485148   7.199464   4.956153   5.401212   4.839182
    40  H    4.748638   5.847246   4.075049   4.559413   2.617106
    41  H    7.666517   7.179173   7.790602   6.128640   7.121378
                   31         32         33         34         35
    31  H    0.000000
    32  H    2.451240   0.000000
    33  H    2.553423   1.776303   0.000000
    34  H    2.748658   4.714473   4.761346   0.000000
    35  H    3.696386   3.989738   3.836789   3.216279   0.000000
    36  H    4.949875   3.835376   4.210236   5.340166   2.508753
    37  H    4.816630   2.533424   3.099207   6.606345   4.609573
    38  H    4.752951   2.975829   2.385011   6.589260   4.515632
    39  H    5.505092   3.724240   3.642782   6.774300   4.090499
    40  H    3.698668   2.935198   2.314778   4.681382   2.230753
    41  H    5.716186   6.236133   7.658595   5.962598   7.604945
                   36         37         38         39         40
    36  H    0.000000
    37  H    3.072523   0.000000
    38  H    3.642127   1.800094   0.000000
    39  H    2.385310   1.799921   1.800158   0.000000
    40  H    2.335858   2.920473   2.328115   2.328218   0.000000
    41  H    7.986566   8.062649   9.129056   9.261441   8.325641
                   41
    41  H    0.000000
 Stoichiometry    C17H20NO3(1+)
 Framework group  C1[X(C17H20NO3)]
 Deg. of freedom   117
 Full point group                 C1      NOp   1
 Largest Abelian subgroup         C1      NOp   1
 Largest concise Abelian subgroup C1      NOp   1
                         Standard orientation:                         
 ---------------------------------------------------------------------
 Center     Atomic      Atomic             Coordinates (Angstroms)
 Number     Number       Type             X           Y           Z
 ---------------------------------------------------------------------
      1          6           0        0.537683   -2.484618   -1.282707
      2          6           0        1.847429   -2.668551   -0.788955
      3          6           0       -0.224286   -1.392590   -0.866459
      4          6           0        0.359770   -0.540349    0.050416
      5          6           0        1.663098   -0.672681    0.484351
      6          6           0        2.427761   -1.748931    0.096549
      7          6           0        1.549524    2.302196   -0.120583
      8          6           0       -1.576491   -1.039264   -1.427322
      9          6           0        0.516959    2.997108   -0.977979
     10          6           0       -0.496831    1.990576   -1.507746
     11          6           0       -1.060278    0.247019    1.922410
     12          6           0       -2.246235   -0.672632    1.619994
     13          6           0        1.035001    1.400730    1.003682
     14          6           0       -1.228672    1.313201   -0.342745
     15          6           0       -2.237458    0.221882   -0.790546
     16          6           0       -0.269689    0.661489    0.660632
     17          6           0       -4.268390   -0.983155    0.180651
     18          7           0       -3.055846   -0.136636    0.462839
     19          8           0        2.752008    2.512187   -0.283535
     20          8           0        2.060887    0.391520    1.259128
     21          8           0        3.704394   -1.905782    0.523580
     22          1           0        0.136296   -3.191754   -2.003976
     23          1           0        2.423002   -3.526096   -1.129956
     24          1           0       -1.429864   -0.822222   -2.493988
     25          1           0       -2.236788   -1.910096   -1.381181
     26          1           0        0.033701    3.775255   -0.377721
     27          1           0        1.025276    3.483300   -1.817545
     28          1           0       -1.223540    2.507766   -2.145210
     29          1           0        0.012793    1.255897   -2.141533
     30          1           0       -1.432723    1.152005    2.420869
     31          1           0       -0.410284   -0.255635    2.650468
     32          1           0       -1.928082   -1.688947    1.365757
     33          1           0       -2.914549   -0.726485    2.486383
     34          1           0        0.926299    2.025272    1.898053
     35          1           0       -1.783809    2.114133    0.168351
     36          1           0       -2.963576    0.649769   -1.492261
     37          1           0       -3.921729   -1.955246   -0.174598
     38          1           0       -4.830383   -1.082773    1.111278
     39          1           0       -4.860440   -0.474741   -0.582818
     40          1           0       -3.442546    0.758879    0.791358
     41          1           0        4.100195   -2.703796    0.133155
 ---------------------------------------------------------------------
 Rotational constants (GHZ):           0.4709148           0.3226227           0.2464452
 Standard basis: 6-31G(d,p) (6D, 7F)
 There are   415 symmetry adapted cartesian basis functions of A   symmetry.
 There are   415 symmetry adapted basis functions of A   symmetry.
   415 basis functions,   728 primitive gaussians,   415 cartesian basis functions
    76 alpha electrons       76 beta electrons
       nuclear repulsion energy      1848.9412572767 Hartrees.
 NAtoms=   41 NActive=   41 NUniq=   41 SFac= 1.00D+00 NAtFMM=   60 NAOKFM=F Big=F
 Integral buffers will be    131072 words long.
 Raffenetti 2 integral format.
 Two-electron integral symmetry is turned on.
 One-electron integrals computed using PRISM.
 NBasis=   415 RedAO= T EigKep=  2.90D-04  NBF=   415
 NBsUse=   415 1.00D-06 EigRej= -1.00D+00 NBFU=   415
 ExpMin= 1.61D-01 ExpMax= 5.48D+03 ExpMxC= 8.25D+02 IAcc=3 IRadAn=         5 AccDes= 0.00D+00
 Harris functional with IExCor=  402 and IRadAn=       5 diagonalized for initial guess.
 HarFok:  IExCor=  402 AccDes= 0.00D+00 IRadAn=         5 IDoV= 1 UseB2=F ITyADJ=14
 ICtDFT=  3500011 ScaDFX=  1.000000  1.000000  1.000000  1.000000
 FoFCou: FMM=F IPFlag=           0 FMFlag=      100000 FMFlg1=           0
         NFxFlg=           0 DoJE=T BraDBF=F KetDBF=T FulRan=T
         wScrn=  0.000000 ICntrl=       500 IOpCl=  0 I1Cent=   200000004 NGrid=           0
         NMat0=    1 NMatS0=      1 NMatT0=    0 NMatD0=    1 NMtDS0=    0 NMtDT0=    0
 Petite list used in FoFCou.
 Requested convergence on RMS density matrix=1.00D-08 within 128 cycles.
 Requested convergence on MAX density matrix=1.00D-06.
 Requested convergence on             energy=1.00D-06.
 No special actions if energy rises.
 Integral accuracy reduced to 1.0D-05 until final iterations.
 Initial convergence to 1.0D-05 achieved.  Increase integral accuracy.
 SCF Done:  E(RB3LYP) =  -940.054975807     A.U. after   15 cycles
            NFock= 15  Conv=0.82D-08     -V/T= 2.0092

 **********************************************************************

            Population analysis using the SCF density.

 **********************************************************************

 Orbital symmetries:
       Occupied  (A) (A) (A) (A) (A) (A) (A) (A) (A) (A) (A) (A)
                 (A) (A) (A) (A) (A) (A) (A) (A) (A) (A) (A) (A)
                 (A) (A) (A) (A) (A) (A) (A) (A) (A) (A) (A) (A)
                 (A) (A) (A) (A) (A) (A) (A) (A) (A) (A) (A) (A)
                 (A) (A) (A) (A) (A) (A) (A) (A) (A) (A) (A) (A)
                 (A) (A) (A) (A) (A) (A) (A) (A) (A) (A) (A) (A)
                 (A) (A) (A) (A)
       Virtual   (A) (A) (A) (A) (A) (A) (A) (A) (A) (A) (A) (A)
                 (A) (A) (A) (A) (A) (A) (A) (A) (A) (A) (A) (A)
                 (A) (A) (A) (A) (A) (A) (A) (A) (A) (A) (A) (A)
                 (A) (A) (A) (A) (A) (A) (A) (A) (A) (A) (A) (A)
                 (A) (A) (A) (A) (A) (A) (A) (A) (A) (A) (A) (A)
                 (A) (A) (A) (A) (A) (A) (A) (A) (A) (A) (A) (A)
                 (A) (A) (A) (A) (A) (A) (A) (A) (A) (A) (A) (A)
                 (A) (A) (A) (A) (A) (A) (A) (A) (A) (A) (A) (A)
                 (A) (A) (A) (A) (A) (A) (A) (A) (A) (A) (A) (A)
                 (A) (A) (A) (A) (A) (A) (A) (A) (A) (A) (A) (A)
                 (A) (A) (A) (A) (A) (A) (A) (A) (A) (A) (A) (A)
                 (A) (A) (A) (A) (A) (A) (A) (A) (A) (A) (A) (A)
                 (A) (A) (A) (A) (A) (A) (A) (A) (A) (A) (A) (A)
                 (A) (A) (A) (A) (A) (A) (A) (A) (A) (A) (A) (A)
                 (A) (A) (A) (A) (A) (A) (A) (A) (A) (A) (A) (A)
                 (A) (A) (A) (A) (A) (A) (A) (A) (A) (A) (A) (A)
                 (A) (A) (A) (A) (A) (A) (A) (A) (A) (A) (A) (A)
                 (A) (A) (A) (A) (A) (A) (A) (A) (A) (A) (A) (A)
                 (A) (A) (A) (A) (A) (A) (A) (A) (A) (A) (A) (A)
                 (A) (A) (A) (A) (A) (A) (A) (A) (A) (A) (A) (A)
                 (A) (A) (A) (A) (A) (A) (A) (A) (A) (A) (A) (A)
                 (A) (A) (A) (A) (A) (A) (A) (A) (A) (A) (A) (A)
                 (A) (A) (A) (A) (A) (A) (A) (A) (A) (A) (A) (A)
                 (A) (A) (A) (A) (A) (A) (A) (A) (A) (A) (A) (A)
                 (A) (A) (A) (A) (A) (A) (A) (A) (A) (A) (A) (A)
                 (A) (A) (A) (A) (A) (A) (A) (A) (A) (A) (A) (A)
                 (A) (A) (A) (A) (A) (A) (A) (A) (A) (A) (A) (A)
                 (A) (A) (A) (A) (A) (A) (A) (A) (A) (A) (A) (A)
                 (A) (A) (A)
 The electronic state is 1-A.
 Alpha  occ. eigenvalues --  -19.28754 -19.27378 -19.24342 -14.62413 -10.41316
 Alpha  occ. eigenvalues --  -10.40510 -10.40373 -10.38067 -10.37084 -10.35716
 Alpha  occ. eigenvalues --  -10.35550 -10.34892 -10.34731 -10.34678 -10.34540
 Alpha  occ. eigenvalues --  -10.32319 -10.31358 -10.30641 -10.30353 -10.30160
 Alpha  occ. eigenvalues --  -10.30088  -1.18407  -1.17720  -1.15519  -1.12925
 Alpha  occ. eigenvalues --   -1.01395  -0.96600  -0.95643  -0.92468  -0.90195
 Alpha  occ. eigenvalues --   -0.88720  -0.86412  -0.85274  -0.83148  -0.80269
 Alpha  occ. eigenvalues --   -0.77567  -0.75469  -0.75158  -0.72546  -0.71804
 Alpha  occ. eigenvalues --   -0.68166  -0.66899  -0.66563  -0.65598  -0.63014
 Alpha  occ. eigenvalues --   -0.61866  -0.61184  -0.60954  -0.59828  -0.59022
 Alpha  occ. eigenvalues --   -0.58757  -0.58039  -0.57592  -0.56688  -0.55576
 Alpha  occ. eigenvalues --   -0.55036  -0.54513  -0.53308  -0.53071  -0.52748
 Alpha  occ. eigenvalues --   -0.51869  -0.51253  -0.50918  -0.49675  -0.48781
 Alpha  occ. eigenvalues --   -0.47551  -0.46544  -0.46250  -0.45446  -0.45151
 Alpha  occ. eigenvalues --   -0.44722  -0.43907  -0.42257  -0.35051  -0.34232
 Alpha  occ. eigenvalues --   -0.31597
 Alpha virt. eigenvalues --   -0.13788  -0.12558  -0.11213  -0.10127  -0.07370
 Alpha virt. eigenvalues --   -0.06721  -0.05142  -0.04193  -0.03734  -0.02901
 Alpha virt. eigenvalues --   -0.02205  -0.01826  -0.01414  -0.00265  -0.00019
 Alpha virt. eigenvalues --    0.00203   0.00929   0.01423   0.02152   0.02704
 Alpha virt. eigenvalues --    0.03205   0.03844   0.04419   0.05065   0.05972
 Alpha virt. eigenvalues --    0.06391   0.06852   0.07142   0.08234   0.08742
 Alpha virt. eigenvalues --    0.09001   0.10718   0.11002   0.11984   0.12998
 Alpha virt. eigenvalues --    0.14071   0.14938   0.15179   0.16379   0.18145
 Alpha virt. eigenvalues --    0.20338   0.21526   0.24228   0.24865   0.25424
 Alpha virt. eigenvalues --    0.27208   0.29124   0.31915   0.32268   0.33696
 Alpha virt. eigenvalues --    0.35174   0.35868   0.37757   0.38339   0.39447
 Alpha virt. eigenvalues --    0.41050   0.41394   0.41946   0.43488   0.43864
 Alpha virt. eigenvalues --    0.44516   0.45681   0.46508   0.47454   0.47994
 Alpha virt. eigenvalues --    0.48460   0.49459   0.50075   0.50593   0.51139
 Alpha virt. eigenvalues --    0.52384   0.52534   0.53613   0.54689   0.55913
 Alpha virt. eigenvalues --    0.56414   0.56806   0.57130   0.58041   0.58759
 Alpha virt. eigenvalues --    0.59658   0.61221   0.61925   0.62936   0.63336
 Alpha virt. eigenvalues --    0.63679   0.65135   0.66330   0.67321   0.67657
 Alpha virt. eigenvalues --    0.69427   0.69602   0.70289   0.71003   0.71383
 Alpha virt. eigenvalues --    0.71652   0.72327   0.72488   0.73018   0.73659
 Alpha virt. eigenvalues --    0.73853   0.75005   0.75717   0.76475   0.77032
 Alpha virt. eigenvalues --    0.78185   0.78609   0.78817   0.79964   0.80967
 Alpha virt. eigenvalues --    0.81445   0.82145   0.83393   0.84804   0.85665
 Alpha virt. eigenvalues --    0.87343   0.88387   0.89298   0.90407   0.92198
 Alpha virt. eigenvalues --    0.93744   0.95036   0.97046   0.97761   0.98847
 Alpha virt. eigenvalues --    0.99451   1.00759   1.01818   1.03423   1.06528
 Alpha virt. eigenvalues --    1.07605   1.09215   1.10143   1.11252   1.12004
 Alpha virt. eigenvalues --    1.14226   1.14738   1.17842   1.19902   1.20847
 Alpha virt. eigenvalues --    1.22661   1.23275   1.25280   1.26675   1.27511
 Alpha virt. eigenvalues --    1.27920   1.31517   1.32316   1.33293   1.34796
 Alpha virt. eigenvalues --    1.35790   1.40473   1.41169   1.41845   1.42934
 Alpha virt. eigenvalues --    1.44871   1.47891   1.49874   1.51078   1.52232
 Alpha virt. eigenvalues --    1.53082   1.54664   1.56102   1.56848   1.58927
 Alpha virt. eigenvalues --    1.59650   1.61639   1.62950   1.63127   1.63457
 Alpha virt. eigenvalues --    1.65131   1.65913   1.66704   1.67805   1.68320
 Alpha virt. eigenvalues --    1.68499   1.69040   1.71608   1.72191   1.73152
 Alpha virt. eigenvalues --    1.73645   1.74159   1.74868   1.75277   1.76792
 Alpha virt. eigenvalues --    1.76915   1.77839   1.78459   1.80322   1.80954
 Alpha virt. eigenvalues --    1.81440   1.82015   1.83106   1.84010   1.84854
 Alpha virt. eigenvalues --    1.85294   1.86080   1.86572   1.87412   1.88316
 Alpha virt. eigenvalues --    1.89681   1.90346   1.90922   1.92803   1.93311
 Alpha virt. eigenvalues --    1.93428   1.94943   1.95791   1.97242   1.98724
 Alpha virt. eigenvalues --    2.01523   2.02049   2.02622   2.04863   2.06518
 Alpha virt. eigenvalues --    2.07343   2.08099   2.08853   2.10030   2.11462
 Alpha virt. eigenvalues --    2.12509   2.14844   2.15123   2.15968   2.17679
 Alpha virt. eigenvalues --    2.18142   2.19545   2.20842   2.21001   2.22418
 Alpha virt. eigenvalues --    2.23718   2.24159   2.25740   2.26785   2.27105
 Alpha virt. eigenvalues --    2.27821   2.28345   2.29500   2.32006   2.32724
 Alpha virt. eigenvalues --    2.33835   2.35014   2.35875   2.36271   2.37444
 Alpha virt. eigenvalues --    2.38959   2.40752   2.41036   2.41425   2.42076
 Alpha virt. eigenvalues --    2.43831   2.45848   2.46732   2.48029   2.48991
 Alpha virt. eigenvalues --    2.49535   2.49787   2.51152   2.51646   2.52334
 Alpha virt. eigenvalues --    2.53542   2.55125   2.56558   2.57205   2.58168
 Alpha virt. eigenvalues --    2.59799   2.60669   2.61281   2.62241   2.62911
 Alpha virt. eigenvalues --    2.64591   2.65196   2.67071   2.67806   2.68394
 Alpha virt. eigenvalues --    2.69738   2.70406   2.71908   2.73567   2.74013
 Alpha virt. eigenvalues --    2.74586   2.75885   2.77564   2.78978   2.79757
 Alpha virt. eigenvalues --    2.82013   2.82412   2.83570   2.85535   2.87252
 Alpha virt. eigenvalues --    2.88561   2.92161   2.94593   2.97347   2.99924
 Alpha virt. eigenvalues --    3.03252   3.03940   3.08933   3.13824   3.14213
 Alpha virt. eigenvalues --    3.16436   3.17465   3.17985   3.19842   3.20885
 Alpha virt. eigenvalues --    3.24288   3.26814   3.27862   3.28505   3.29155
 Alpha virt. eigenvalues --    3.31510   3.33006   3.34512   3.34796   3.37110
 Alpha virt. eigenvalues --    3.37749   3.42045   3.63645   3.84969   3.97606
 Alpha virt. eigenvalues --    3.99378   4.03332   4.10849   4.13613   4.20425
 Alpha virt. eigenvalues --    4.25501   4.29897   4.32694   4.35231   4.40650
 Alpha virt. eigenvalues --    4.43645   4.47022   4.58819   4.60474   4.64181
 Alpha virt. eigenvalues --    4.68420   4.71898   4.77442   4.97037
          Condensed to atoms (all electrons):
               1          2          3          4          5          6
     1  C    4.966201   0.465375   0.502155  -0.005095  -0.054751  -0.002968
     2  C    0.465375   5.032280  -0.022943  -0.045324  -0.046923   0.482141
     3  C    0.502155  -0.022943   4.861461   0.511417  -0.015018  -0.047157
     4  C   -0.005095  -0.045324   0.511417   5.113112   0.469909  -0.049721
     5  C   -0.054751  -0.046923  -0.015018   0.469909   4.795260   0.418155
     6  C   -0.002968   0.482141  -0.047157  -0.049721   0.418155   4.734055
     7  C    0.000017  -0.000073  -0.000543  -0.009539   0.009466   0.000680
     8  C   -0.075939   0.006581   0.315935  -0.043961   0.009949  -0.000152
     9  C    0.000021  -0.000000   0.000182  -0.004294   0.000324  -0.000015
    10  C   -0.000237   0.000016  -0.004282  -0.002769   0.000441   0.000008
    11  C    0.000014   0.000008  -0.003614  -0.073525  -0.005929   0.000043
    12  C   -0.000338   0.000014   0.000548  -0.004712  -0.000463  -0.000015
    13  C   -0.000342  -0.000156   0.009375  -0.044759  -0.069453   0.004301
    14  C    0.000135   0.000014  -0.004958  -0.042146   0.003855  -0.000354
    15  C    0.003896  -0.000191  -0.022597  -0.024459  -0.000024   0.000010
    16  C    0.011360  -0.000371  -0.071574   0.267716  -0.071795   0.013598
    17  C   -0.000009   0.000000   0.000044  -0.000037   0.000001  -0.000000
    18  N    0.000084  -0.000001   0.002753  -0.003078  -0.000095   0.000001
    19  O    0.000001  -0.000002  -0.000030  -0.000706   0.003970   0.000123
    20  O   -0.000121   0.003716   0.007320  -0.061833   0.227546  -0.062297
    21  O    0.004174  -0.068363   0.000379   0.003253  -0.053881   0.278772
    22  H    0.366776  -0.027900  -0.045230   0.004265   0.000829   0.003375
    23  H   -0.025552   0.362290   0.003199   0.001038   0.004218  -0.038801
    24  H   -0.002510   0.000003  -0.029905  -0.001346  -0.000251   0.000070
    25  H   -0.002952   0.000018  -0.033796   0.001587  -0.000197   0.000013
    26  H   -0.000000   0.000000  -0.000013   0.000291  -0.000007  -0.000000
    27  H   -0.000001   0.000000  -0.000005   0.000012  -0.000018  -0.000000
    28  H    0.000004  -0.000000   0.000187  -0.000106   0.000010   0.000001
    29  H   -0.000261   0.000005   0.000695   0.008650  -0.000107  -0.000075
    30  H    0.000003  -0.000000  -0.000106   0.006284   0.000242   0.000006
    31  H    0.000025  -0.000030  -0.000230  -0.006857   0.003085  -0.000127
    32  H    0.000345  -0.000045   0.003422   0.006560   0.000313  -0.000059
    33  H    0.000002  -0.000000   0.000134   0.000209  -0.000004  -0.000001
    34  H    0.000002   0.000008  -0.000165   0.007227   0.003801  -0.000217
    35  H    0.000000   0.000000  -0.000405   0.007433  -0.000025   0.000003
    36  H   -0.000096   0.000002   0.002479   0.000491   0.000012   0.000000
    37  H   -0.000033  -0.000000  -0.000456   0.000071   0.000002  -0.000000
    38  H   -0.000000   0.000000  -0.000008  -0.000003  -0.000000   0.000000
    39  H    0.000000   0.000000   0.000034  -0.000006  -0.000000   0.000000
    40  H    0.000002  -0.000000  -0.000372   0.000484   0.000008   0.000000
    41  H    0.000678  -0.007305  -0.000047  -0.000139   0.007236  -0.032430
               7          8          9         10         11         12
     1  C    0.000017  -0.075939   0.000021  -0.000237   0.000014  -0.000338
     2  C   -0.000073   0.006581  -0.000000   0.000016   0.000008   0.000014
     3  C   -0.000543   0.315935   0.000182  -0.004282  -0.003614   0.000548
     4  C   -0.009539  -0.043961  -0.004294  -0.002769  -0.073525  -0.004712
     5  C    0.009466   0.009949   0.000324   0.000441  -0.005929  -0.000463
     6  C    0.000680  -0.000152  -0.000015   0.000008   0.000043  -0.000015
     7  C    4.675129  -0.000089   0.308356  -0.030599   0.004145  -0.000115
     8  C   -0.000089   5.147540  -0.000133  -0.001036   0.000491  -0.000554
     9  C    0.308356  -0.000133   5.205561   0.317949  -0.000667   0.000016
    10  C   -0.030599  -0.001036   0.317949   4.976563   0.005385   0.000131
    11  C    0.004145   0.000491  -0.000667   0.005385   5.050472   0.334831
    12  C   -0.000115  -0.000554   0.000016   0.000131   0.334831   4.984121
    13  C    0.200674   0.000126  -0.132288  -0.000330  -0.027975   0.004125
    14  C   -0.014246  -0.034616  -0.038807   0.359473  -0.051908  -0.017331
    15  C    0.000282   0.315493   0.004227  -0.034002  -0.012647  -0.030712
    16  C   -0.011617  -0.041711   0.005945  -0.046479   0.343102  -0.026737
    17  C   -0.000000  -0.004135   0.000001  -0.000073   0.003558  -0.040414
    18  N   -0.000000  -0.049306  -0.000089   0.002834  -0.041002   0.208023
    19  O    0.564167   0.000000  -0.075917   0.001443  -0.000053   0.000000
    20  O   -0.043846  -0.000103   0.003388   0.000025   0.000259  -0.000057
    21  O    0.000003   0.000001   0.000000  -0.000000   0.000001   0.000000
    22  H    0.000000  -0.006595   0.000000  -0.000002   0.000001   0.000001
    23  H   -0.000000  -0.000156  -0.000000   0.000000   0.000000  -0.000000
    24  H   -0.000002   0.370136  -0.000015   0.002426  -0.000107   0.000009
    25  H    0.000000   0.371778  -0.000001   0.000014   0.000181  -0.000032
    26  H   -0.032216   0.000011   0.367575  -0.037128  -0.000063  -0.000001
    27  H   -0.019576   0.000005   0.365211  -0.026778   0.000012  -0.000000
    28  H    0.003414  -0.000614  -0.025402   0.374048  -0.000146  -0.000011
    29  H   -0.002789   0.004626  -0.038395   0.390220   0.000110  -0.000020
    30  H   -0.000149   0.000029   0.000046  -0.000023   0.370851  -0.038684
    31  H    0.000290  -0.000042  -0.000017  -0.000129   0.383460  -0.028904
    32  H    0.000000   0.003839  -0.000000   0.000001  -0.029955   0.389728
    33  H    0.000001  -0.000149  -0.000000   0.000008  -0.029790   0.388216
    34  H   -0.038405   0.000001   0.004862  -0.000100  -0.007543   0.000155
    35  H   -0.000977   0.004810  -0.003561  -0.036557  -0.003794  -0.001250
    36  H    0.000008  -0.031729  -0.000019  -0.002565  -0.000207   0.003605
    37  H   -0.000000   0.002854   0.000000   0.000001   0.000071  -0.002511
    38  H    0.000000   0.000109  -0.000000   0.000002   0.000078  -0.001912
    39  H    0.000000  -0.000565   0.000000  -0.000006  -0.000201   0.003627
    40  H    0.000001   0.005030  -0.000013  -0.000081   0.000540  -0.030261
    41  H    0.000000  -0.000001  -0.000000   0.000000  -0.000000  -0.000000
              13         14         15         16         17         18
     1  C   -0.000342   0.000135   0.003896   0.011360  -0.000009   0.000084
     2  C   -0.000156   0.000014  -0.000191  -0.000371   0.000000  -0.000001
     3  C    0.009375  -0.004958  -0.022597  -0.071574   0.000044   0.002753
     4  C   -0.044759  -0.042146  -0.024459   0.267716  -0.000037  -0.003078
     5  C   -0.069453   0.003855  -0.000024  -0.071795   0.000001  -0.000095
     6  C    0.004301  -0.000354   0.000010   0.013598  -0.000000   0.000001
     7  C    0.200674  -0.014246   0.000282  -0.011617  -0.000000  -0.000000
     8  C    0.000126  -0.034616   0.315493  -0.041711  -0.004135  -0.049306
     9  C   -0.132288  -0.038807   0.004227   0.005945   0.000001  -0.000089
    10  C   -0.000330   0.359473  -0.034002  -0.046479  -0.000073   0.002834
    11  C   -0.027975  -0.051908  -0.012647   0.343102   0.003558  -0.041002
    12  C    0.004125  -0.017331  -0.030712  -0.026737  -0.040414   0.208023
    13  C    5.216768  -0.034991   0.003752   0.264053   0.000006   0.000072
    14  C   -0.034991   5.083350   0.318854   0.321528   0.003694  -0.040112
    15  C    0.003752   0.318854   5.092363  -0.010964  -0.033788   0.184666
    16  C    0.264053   0.321528  -0.010964   5.328941   0.000076  -0.006988
    17  C    0.000006   0.003694  -0.033788   0.000076   4.905880   0.233596
    18  N    0.000072  -0.040112   0.184666  -0.006988   0.233596   6.833642
    19  O   -0.073388   0.000315   0.000000   0.002765   0.000000   0.000000
    20  O    0.236412   0.002384  -0.000041  -0.042897   0.000000  -0.000001
    21  O   -0.000030   0.000000  -0.000000  -0.000086   0.000000   0.000000
    22  H    0.000004   0.000000   0.000094  -0.000190  -0.000000  -0.000001
    23  H    0.000004  -0.000000   0.000002   0.000004  -0.000000   0.000000
    24  H    0.000018  -0.003453  -0.023973   0.000958   0.000063   0.003383
    25  H    0.000007   0.003871  -0.035665   0.000297   0.000096  -0.006336
    26  H    0.006034  -0.004728  -0.000004  -0.003638   0.000000  -0.000002
    27  H    0.005136   0.003905  -0.000121   0.000130  -0.000000   0.000001
    28  H   -0.000300  -0.030117  -0.004027   0.005797  -0.000001   0.000037
    29  H    0.001385  -0.033315  -0.008588  -0.012394   0.000001   0.000006
    30  H   -0.006151  -0.002853  -0.000946  -0.037238  -0.000101  -0.003244
    31  H   -0.005346   0.004787   0.000064  -0.022858  -0.000088   0.003240
    32  H   -0.000041   0.000039  -0.005099  -0.004865  -0.001523  -0.034974
    33  H   -0.000063  -0.000038   0.003570   0.003246  -0.003404  -0.032685
    34  H    0.378909   0.001681  -0.000168  -0.044431  -0.000000  -0.000000
    35  H   -0.001961   0.379848  -0.047807  -0.055789  -0.000009  -0.006997
    36  H   -0.000106  -0.037453   0.391809   0.003925  -0.003926  -0.038880
    37  H   -0.000000   0.000108  -0.004312  -0.000054   0.392960  -0.032066
    38  H   -0.000000  -0.000179   0.003537   0.000008   0.388009  -0.029047
    39  H   -0.000000   0.000022  -0.001578   0.000009   0.388824  -0.030010
    40  H   -0.000087   0.000588  -0.033254  -0.002983  -0.028663   0.333267
    41  H    0.000004  -0.000000   0.000000   0.000006  -0.000000   0.000000
              19         20         21         22         23         24
     1  C    0.000001  -0.000121   0.004174   0.366776  -0.025552  -0.002510
     2  C   -0.000002   0.003716  -0.068363  -0.027900   0.362290   0.000003
     3  C   -0.000030   0.007320   0.000379  -0.045230   0.003199  -0.029905
     4  C   -0.000706  -0.061833   0.003253   0.004265   0.001038  -0.001346
     5  C    0.003970   0.227546  -0.053881   0.000829   0.004218  -0.000251
     6  C    0.000123  -0.062297   0.278772   0.003375  -0.038801   0.000070
     7  C    0.564167  -0.043846   0.000003   0.000000  -0.000000  -0.000002
     8  C    0.000000  -0.000103   0.000001  -0.006595  -0.000156   0.370136
     9  C   -0.075917   0.003388   0.000000   0.000000  -0.000000  -0.000015
    10  C    0.001443   0.000025  -0.000000  -0.000002   0.000000   0.002426
    11  C   -0.000053   0.000259   0.000001   0.000001   0.000000  -0.000107
    12  C    0.000000  -0.000057   0.000000   0.000001  -0.000000   0.000009
    13  C   -0.073388   0.236412  -0.000030   0.000004   0.000004   0.000018
    14  C    0.000315   0.002384   0.000000   0.000000  -0.000000  -0.003453
    15  C    0.000000  -0.000041  -0.000000   0.000094   0.000002  -0.023973
    16  C    0.002765  -0.042897  -0.000086  -0.000190   0.000004   0.000958
    17  C    0.000000   0.000000   0.000000  -0.000000  -0.000000   0.000063
    18  N    0.000000  -0.000001   0.000000  -0.000001   0.000000   0.003383
    19  O    7.982044  -0.002104   0.000001   0.000000  -0.000000   0.000000
    20  O   -0.002104   8.264490   0.000160   0.000002  -0.000040   0.000001
    21  O    0.000001   0.000160   8.084501  -0.000049  -0.006167  -0.000000
    22  H    0.000000   0.000002  -0.000049   0.605464  -0.005134   0.001392
    23  H   -0.000000  -0.000040  -0.006167  -0.005134   0.588887  -0.000001
    24  H    0.000000   0.000001  -0.000000   0.001392  -0.000001   0.548188
    25  H   -0.000000   0.000000  -0.000000   0.002403  -0.000001  -0.028062
    26  H    0.000791  -0.000016  -0.000000  -0.000000   0.000000   0.000000
    27  H    0.003769  -0.000060  -0.000000  -0.000000  -0.000000   0.000001
    28  H   -0.000071   0.000001   0.000000   0.000000  -0.000000   0.000044
    29  H    0.000535  -0.000066   0.000000  -0.000008   0.000000   0.000031
    30  H   -0.000000  -0.000162  -0.000000  -0.000000   0.000000   0.000004
    31  H    0.000000   0.004103   0.000001   0.000000  -0.000000  -0.000000
    32  H    0.000000   0.000003   0.000000  -0.000008   0.000000   0.000115
    33  H   -0.000000   0.000001   0.000000   0.000000  -0.000000   0.000002
    34  H   -0.002068  -0.024403  -0.000001  -0.000000  -0.000000  -0.000000
    35  H   -0.000005  -0.000053  -0.000000  -0.000000  -0.000000  -0.000086
    36  H    0.000000   0.000000   0.000000  -0.000002  -0.000000  -0.005141
    37  H   -0.000000   0.000000  -0.000000  -0.000003   0.000000  -0.000233
    38  H   -0.000000   0.000000  -0.000000   0.000000   0.000000  -0.000002
    39  H   -0.000000   0.000000   0.000000  -0.000000  -0.000000  -0.000030
    40  H   -0.000000  -0.000000  -0.000000  -0.000000   0.000000  -0.000118
    41  H    0.000000  -0.000097   0.299270  -0.000014   0.005715   0.000000
              25         26         27         28         29         30
     1  C   -0.002952  -0.000000  -0.000001   0.000004  -0.000261   0.000003
     2  C    0.000018   0.000000   0.000000  -0.000000   0.000005  -0.000000
     3  C   -0.033796  -0.000013  -0.000005   0.000187   0.000695  -0.000106
     4  C    0.001587   0.000291   0.000012  -0.000106   0.008650   0.006284
     5  C   -0.000197  -0.000007  -0.000018   0.000010  -0.000107   0.000242
     6  C    0.000013  -0.000000  -0.000000   0.000001  -0.000075   0.000006
     7  C    0.000000  -0.032216  -0.019576   0.003414  -0.002789  -0.000149
     8  C    0.371778   0.000011   0.000005  -0.000614   0.004626   0.000029
     9  C   -0.000001   0.367575   0.365211  -0.025402  -0.038395   0.000046
    10  C    0.000014  -0.037128  -0.026778   0.374048   0.390220  -0.000023
    11  C    0.000181  -0.000063   0.000012  -0.000146   0.000110   0.370851
    12  C   -0.000032  -0.000001  -0.000000  -0.000011  -0.000020  -0.038684
    13  C    0.000007   0.006034   0.005136  -0.000300   0.001385  -0.006151
    14  C    0.003871  -0.004728   0.003905  -0.030117  -0.033315  -0.002853
    15  C   -0.035665  -0.000004  -0.000121  -0.004027  -0.008588  -0.000946
    16  C    0.000297  -0.003638   0.000130   0.005797  -0.012394  -0.037238
    17  C    0.000096   0.000000  -0.000000  -0.000001   0.000001  -0.000101
    18  N   -0.006336  -0.000002   0.000001   0.000037   0.000006  -0.003244
    19  O   -0.000000   0.000791   0.003769  -0.000071   0.000535  -0.000000
    20  O    0.000000  -0.000016  -0.000060   0.000001  -0.000066  -0.000162
    21  O   -0.000000  -0.000000  -0.000000   0.000000   0.000000  -0.000000
    22  H    0.002403  -0.000000  -0.000000   0.000000  -0.000008  -0.000000
    23  H   -0.000001   0.000000  -0.000000  -0.000000   0.000000   0.000000
    24  H   -0.028062   0.000000   0.000001   0.000044   0.000031   0.000004
    25  H    0.593242   0.000000  -0.000000  -0.000008   0.000067  -0.000009
    26  H    0.000000   0.584389  -0.021718  -0.005294   0.005265   0.000013
    27  H   -0.000000  -0.021718   0.534146  -0.003302  -0.002922  -0.000000
    28  H   -0.000008  -0.005294  -0.003302   0.597613  -0.033274  -0.000006
    29  H    0.000067   0.005265  -0.002922  -0.033274   0.574581  -0.000003
    30  H   -0.000009   0.000013  -0.000000  -0.000006  -0.000003   0.604665
    31  H   -0.000002   0.000002   0.000000   0.000002   0.000004  -0.026307
    32  H   -0.000756   0.000000   0.000000  -0.000000  -0.000003   0.004626
    33  H   -0.000057   0.000000   0.000000  -0.000000   0.000000  -0.005437
    34  H   -0.000000   0.000378  -0.000141   0.000007   0.000024   0.003152
    35  H   -0.000082   0.005947  -0.000022  -0.006036   0.005943   0.004655
    36  H   -0.000381  -0.000008  -0.000003   0.003864  -0.000451  -0.000025
    37  H    0.005444  -0.000000   0.000000   0.000000  -0.000001  -0.000000
    38  H    0.000008   0.000000   0.000000   0.000000   0.000000  -0.000016
    39  H    0.000041   0.000000   0.000000  -0.000001   0.000000   0.000005
    40  H    0.000005   0.000001   0.000000  -0.000015   0.000021   0.004042
    41  H    0.000000   0.000000  -0.000000  -0.000000   0.000000   0.000000
              31         32         33         34         35         36
     1  C    0.000025   0.000345   0.000002   0.000002   0.000000  -0.000096
     2  C   -0.000030  -0.000045  -0.000000   0.000008   0.000000   0.000002
     3  C   -0.000230   0.003422   0.000134  -0.000165  -0.000405   0.002479
     4  C   -0.006857   0.006560   0.000209   0.007227   0.007433   0.000491
     5  C    0.003085   0.000313  -0.000004   0.003801  -0.000025   0.000012
     6  C   -0.000127  -0.000059  -0.000001  -0.000217   0.000003   0.000000
     7  C    0.000290   0.000000   0.000001  -0.038405  -0.000977   0.000008
     8  C   -0.000042   0.003839  -0.000149   0.000001   0.004810  -0.031729
     9  C   -0.000017  -0.000000  -0.000000   0.004862  -0.003561  -0.000019
    10  C   -0.000129   0.000001   0.000008  -0.000100  -0.036557  -0.002565
    11  C    0.383460  -0.029955  -0.029790  -0.007543  -0.003794  -0.000207
    12  C   -0.028904   0.389728   0.388216   0.000155  -0.001250   0.003605
    13  C   -0.005346  -0.000041  -0.000063   0.378909  -0.001961  -0.000106
    14  C    0.004787   0.000039  -0.000038   0.001681   0.379848  -0.037453
    15  C    0.000064  -0.005099   0.003570  -0.000168  -0.047807   0.391809
    16  C   -0.022858  -0.004865   0.003246  -0.044431  -0.055789   0.003925
    17  C   -0.000088  -0.001523  -0.003404  -0.000000  -0.000009  -0.003926
    18  N    0.003240  -0.034974  -0.032685  -0.000000  -0.006997  -0.038880
    19  O    0.000000   0.000000  -0.000000  -0.002068  -0.000005   0.000000
    20  O    0.004103   0.000003   0.000001  -0.024403  -0.000053   0.000000
    21  O    0.000001   0.000000   0.000000  -0.000001  -0.000000   0.000000
    22  H    0.000000  -0.000008   0.000000  -0.000000  -0.000000  -0.000002
    23  H   -0.000000   0.000000  -0.000000  -0.000000  -0.000000  -0.000000
    24  H   -0.000000   0.000115   0.000002  -0.000000  -0.000086  -0.005141
    25  H   -0.000002  -0.000756  -0.000057  -0.000000  -0.000082  -0.000381
    26  H    0.000002   0.000000   0.000000   0.000378   0.005947  -0.000008
    27  H    0.000000   0.000000   0.000000  -0.000141  -0.000022  -0.000003
    28  H    0.000002  -0.000000  -0.000000   0.000007  -0.006036   0.003864
    29  H    0.000004  -0.000003   0.000000   0.000024   0.005943  -0.000451
    30  H   -0.026307   0.004626  -0.005437   0.003152   0.004655  -0.000025
    31  H    0.526606  -0.004155  -0.000585  -0.000136   0.000052   0.000014
    32  H   -0.004155   0.507114  -0.026379   0.000003   0.000025  -0.000040
[...]
    18  N    0.000067  -0.039852   0.184931  -0.006758   0.235996   6.824040
    19  O   -0.075022   0.000315   0.000000   0.002750   0.000000   0.000000
    20  O    0.233415   0.002265  -0.000038  -0.042340   0.000000  -0.000001
    21  O   -0.000030   0.000000  -0.000000  -0.000080   0.000000   0.000000
    22  H    0.000003   0.000000   0.000079  -0.000178   0.000000  -0.000001
    23  H    0.000003  -0.000000   0.000001   0.000004  -0.000000   0.000000
    24  H    0.000016  -0.003306  -0.024171   0.000919   0.000039   0.003381
    25  H    0.000006   0.003805  -0.035489   0.000298   0.000538  -0.006444
    26  H    0.006033  -0.004651  -0.000001  -0.003410   0.000000  -0.000002
    27  H    0.005032   0.003789  -0.000114   0.000122  -0.000000   0.000001
    28  H   -0.000306  -0.029788  -0.003823   0.005518  -0.000001   0.000032
    29  H    0.001394  -0.033047  -0.008180  -0.011677   0.000001   0.000004
    30  H   -0.005964  -0.002902  -0.000903  -0.036992  -0.000098  -0.003097
    31  H   -0.005222   0.004716   0.000060  -0.022857  -0.000085   0.003143
    32  H   -0.000036   0.000013  -0.004906  -0.004660  -0.001377  -0.034330
    33  H   -0.000063  -0.000034   0.003473   0.003185  -0.003181  -0.032195
    34  H    0.377510   0.001666  -0.000158  -0.043451  -0.000000  -0.000000
    35  H   -0.001855   0.378624  -0.047161  -0.054682  -0.000014  -0.006793
    36  H   -0.000102  -0.037088   0.391886   0.003841  -0.003720  -0.038707
    37  H   -0.000000   0.000090  -0.003974  -0.000045   0.393104  -0.029963
    38  H   -0.000000  -0.000168   0.003429   0.000008   0.387975  -0.028417
    39  H   -0.000000   0.000021  -0.001583   0.000008   0.388702  -0.029192
    40  H   -0.000080   0.000531  -0.032632  -0.002824  -0.028564   0.333676
    41  H    0.000003  -0.000000   0.000000   0.000006  -0.000000   0.000000
              19         20         21         22         23         24
     1  C    0.000001  -0.000133   0.004189   0.366482  -0.025670  -0.002263
     2  C   -0.000002   0.003589  -0.067472  -0.028054   0.362705  -0.000000
     3  C   -0.000029   0.007226   0.000361  -0.044225   0.003217  -0.029512
     4  C   -0.000695  -0.060403   0.003200   0.004121   0.000983  -0.001322
     5  C    0.003751   0.225164  -0.053606   0.000808   0.004107  -0.000236
     6  C    0.000114  -0.060436   0.278951   0.003417  -0.039068   0.000064
     7  C    0.583641  -0.041820   0.000002   0.000000  -0.000000  -0.000002
     8  C    0.000000  -0.000097   0.000001  -0.006105  -0.000146   0.371008
     9  C   -0.078112   0.003239   0.000000   0.000000  -0.000000  -0.000016
    10  C    0.001457   0.000023  -0.000000  -0.000002   0.000000   0.002354
    11  C   -0.000053   0.000269   0.000001   0.000001   0.000000  -0.000101
    12  C    0.000000  -0.000056   0.000000   0.000000  -0.000000   0.000008
    13  C   -0.075022   0.233415  -0.000030   0.000003   0.000003   0.000016
    14  C    0.000315   0.002265   0.000000   0.000000  -0.000000  -0.003306
    15  C    0.000000  -0.000038  -0.000000   0.000079   0.000001  -0.024171
    16  C    0.002750  -0.042340  -0.000080  -0.000178   0.000004   0.000919
    17  C    0.000000   0.000000   0.000000   0.000000  -0.000000   0.000039
    18  N    0.000000  -0.000001   0.000000  -0.000001   0.000000   0.003381
    19  O    7.953746  -0.001694   0.000001   0.000000  -0.000000   0.000000
    20  O   -0.001694   8.266907   0.000200   0.000001  -0.000038   0.000001
    21  O    0.000001   0.000200   8.076007  -0.000050  -0.006096  -0.000000
    22  H    0.000000   0.000001  -0.000050   0.604084  -0.005278   0.001288
    23  H   -0.000000  -0.000038  -0.006096  -0.005278   0.588088  -0.000001
    24  H    0.000000   0.000001  -0.000000   0.001288  -0.000001   0.547307
    25  H   -0.000000   0.000000  -0.000000   0.002225  -0.000001  -0.028365
    26  H    0.000823  -0.000015  -0.000000  -0.000000   0.000000   0.000000
    27  H    0.003866  -0.000058  -0.000000  -0.000000  -0.000000   0.000001
    28  H   -0.000073   0.000001   0.000000   0.000000  -0.000000   0.000044
    29  H    0.000526  -0.000063   0.000000  -0.000008   0.000000   0.000047
    30  H   -0.000000  -0.000156  -0.000000  -0.000000   0.000000   0.000004
    31  H    0.000000   0.004076   0.000001   0.000000  -0.000000  -0.000000
    32  H    0.000000   0.000003   0.000000  -0.000008   0.000000   0.000108
    33  H   -0.000000   0.000001   0.000000   0.000000  -0.000000   0.000002
    34  H   -0.001981  -0.024385  -0.000001  -0.000000  -0.000000  -0.000000
    35  H   -0.000005  -0.000050  -0.000000  -0.000000   0.000000  -0.000083
    36  H    0.000000   0.000000   0.000000  -0.000002  -0.000000  -0.005109
    37  H   -0.000000   0.000000  -0.000000  -0.000003   0.000000  -0.000209
    38  H   -0.000000   0.000000  -0.000000   0.000000   0.000000  -0.000002
    39  H   -0.000000   0.000000   0.000000  -0.000000  -0.000000  -0.000030
    40  H   -0.000000  -0.000000  -0.000000  -0.000000   0.000000  -0.000119
    41  H    0.000000  -0.000097   0.301500  -0.000015   0.005788   0.000000
              25         26         27         28         29         30
     1  C   -0.002686  -0.000000  -0.000000   0.000003  -0.000226   0.000003
     2  C    0.000013   0.000000   0.000000  -0.000000   0.000005  -0.000000
     3  C   -0.032909  -0.000012  -0.000005   0.000174   0.000844  -0.000106
     4  C    0.001504   0.000265   0.000010  -0.000097   0.008215   0.006096
     5  C   -0.000186  -0.000008  -0.000016   0.000010  -0.000109   0.000234
     6  C    0.000012  -0.000000  -0.000000   0.000001  -0.000071   0.000006
     7  C    0.000000  -0.031255  -0.019549   0.003281  -0.002767  -0.000138
     8  C    0.371532   0.000010   0.000004  -0.000582   0.004371   0.000029
     9  C   -0.000001   0.366124   0.365444  -0.025269  -0.038222   0.000042
    10  C    0.000013  -0.036141  -0.026644   0.373905   0.389905  -0.000020
    11  C    0.000170  -0.000057   0.000011  -0.000140   0.000108   0.370860
    12  C   -0.000025  -0.000001  -0.000000  -0.000010  -0.000019  -0.038396
    13  C    0.000006   0.006033   0.005032  -0.000306   0.001394  -0.005964
    14  C    0.003805  -0.004651   0.003789  -0.029788  -0.033047  -0.002902
    15  C   -0.035489  -0.000001  -0.000114  -0.003823  -0.008180  -0.000903
    16  C    0.000298  -0.003410   0.000122   0.005518  -0.011677  -0.036992
    17  C    0.000538   0.000000  -0.000000  -0.000001   0.000001  -0.000098
    18  N   -0.006444  -0.000002   0.000001   0.000032   0.000004  -0.003097
    19  O   -0.000000   0.000823   0.003866  -0.000073   0.000526  -0.000000
    20  O    0.000000  -0.000015  -0.000058   0.000001  -0.000063  -0.000156
    21  O   -0.000000  -0.000000  -0.000000   0.000000   0.000000  -0.000000
    22  H    0.002225  -0.000000  -0.000000   0.000000  -0.000008  -0.000000
    23  H   -0.000001   0.000000  -0.000000  -0.000000   0.000000   0.000000
    24  H   -0.028365   0.000000   0.000001   0.000044   0.000047   0.000004
    25  H    0.592792   0.000000  -0.000000  -0.000008   0.000061  -0.000008
    26  H    0.000000   0.585509  -0.021925  -0.005198   0.005138   0.000013
    27  H   -0.000000  -0.021925   0.535022  -0.003201  -0.002810  -0.000000
    28  H   -0.000008  -0.005198  -0.003201   0.597637  -0.033625  -0.000005
    29  H    0.000061   0.005138  -0.002810  -0.033625   0.574478  -0.000003
    30  H   -0.000008   0.000013  -0.000000  -0.000005  -0.000003   0.604237
    31  H   -0.000002   0.000002   0.000000   0.000002   0.000003  -0.026504
    32  H   -0.000684   0.000000   0.000000  -0.000000  -0.000003   0.004563
    33  H   -0.000057   0.000000   0.000000  -0.000000   0.000000  -0.005325
    34  H   -0.000000   0.000344  -0.000141   0.000007   0.000022   0.003115
    35  H   -0.000083   0.005735  -0.000023  -0.005832   0.005766   0.004574
    36  H   -0.000372  -0.000008  -0.000003   0.003745  -0.000445  -0.000024
    37  H    0.005062  -0.000000   0.000000   0.000000  -0.000000  -0.000001
    38  H    0.000004   0.000000   0.000000   0.000000   0.000000  -0.000014
    39  H    0.000040   0.000000   0.000000  -0.000001   0.000000   0.000005
    40  H    0.000016   0.000001   0.000000  -0.000015   0.000020   0.003906
    41  H    0.000000   0.000000  -0.000000  -0.000000   0.000000   0.000000
              31         32         33         34         35         36
     1  C    0.000022   0.000335   0.000002   0.000002   0.000000  -0.000088
     2  C   -0.000028  -0.000042  -0.000000   0.000007   0.000000   0.000002
     3  C   -0.000225   0.003528   0.000134  -0.000161  -0.000374   0.002474
     4  C   -0.006696   0.006414   0.000208   0.006933   0.007101   0.000461
     5  C    0.003045   0.000285  -0.000004   0.003784  -0.000028   0.000012
     6  C   -0.000119  -0.000056  -0.000001  -0.000205   0.000003   0.000000
     7  C    0.000274   0.000000   0.000001  -0.037391  -0.000903   0.000008
     8  C   -0.000042   0.003749  -0.000141   0.000000   0.004696  -0.032082
     9  C   -0.000016  -0.000000  -0.000000   0.004931  -0.003434  -0.000020
    10  C   -0.000123   0.000001   0.000008  -0.000113  -0.036038  -0.002431
    11  C    0.383728  -0.029726  -0.029552  -0.007411  -0.003658  -0.000202
    12  C   -0.028786   0.389648   0.387907   0.000147  -0.001200   0.003540
    13  C   -0.005222  -0.000036  -0.000063   0.377510  -0.001855  -0.000102
    14  C    0.004716   0.000013  -0.000034   0.001666   0.378624  -0.037088
    15  C    0.000060  -0.004906   0.003473  -0.000158  -0.047161   0.391886
    16  C   -0.022857  -0.004660   0.003185  -0.043451  -0.054682   0.003841
    17  C   -0.000085  -0.001377  -0.003181  -0.000000  -0.000014  -0.003720
    18  N    0.003143  -0.034330  -0.032195  -0.000000  -0.006793  -0.038707
    19  O    0.000000   0.000000  -0.000000  -0.001981  -0.000005   0.000000
    20  O    0.004076   0.000003   0.000001  -0.024385  -0.000050   0.000000
    21  O    0.000001   0.000000   0.000000  -0.000001  -0.000000   0.000000
    22  H    0.000000  -0.000008   0.000000  -0.000000  -0.000000  -0.000002
    23  H   -0.000000   0.000000  -0.000000  -0.000000   0.000000  -0.000000
    24  H   -0.000000   0.000108   0.000002  -0.000000  -0.000083  -0.005109
    25  H   -0.000002  -0.000684  -0.000057  -0.000000  -0.000083  -0.000372
    26  H    0.000002   0.000000   0.000000   0.000344   0.005735  -0.000008
    27  H    0.000000   0.000000   0.000000  -0.000141  -0.000023  -0.000003
    28  H    0.000002  -0.000000  -0.000000   0.000007  -0.005832   0.003745
    29  H    0.000003  -0.000003   0.000000   0.000022   0.005766  -0.000445
    30  H   -0.026504   0.004563  -0.005325   0.003115   0.004574  -0.000024
    31  H    0.525796  -0.004074  -0.000521  -0.000138   0.000047   0.000014
    32  H   -0.004074   0.505846  -0.026707   0.000002   0.000023  -0.000038
    33  H   -0.000521  -0.026707   0.536795  -0.000009  -0.000110  -0.000126
    34  H   -0.000138   0.000002  -0.000009   0.572833   0.000855   0.000003
    35  H    0.000047   0.000023  -0.000110   0.000855   0.649319  -0.003270
    36  H    0.000014  -0.000038  -0.000126   0.000003  -0.003270   0.568164
    37  H    0.000000   0.002989  -0.000479   0.000000  -0.000006  -0.000378
    38  H   -0.000001  -0.000699   0.004134   0.000000  -0.000004   0.000017
    39  H    0.000002   0.000004   0.000001   0.000000   0.000007   0.004574
    40  H   -0.000107   0.004430  -0.005341   0.000005   0.009364  -0.003894
    41  H   -0.000000   0.000000  -0.000000  -0.000000   0.000000  -0.000000
              37         38         39         40         41
     1  C   -0.000027  -0.000000   0.000000   0.000002   0.000691
     2  C   -0.000000   0.000000   0.000000  -0.000000  -0.007298
     3  C   -0.000377  -0.000008   0.000030  -0.000355  -0.000046
     4  C    0.000059  -0.000003  -0.000005   0.000461  -0.000139
     5  C    0.000002  -0.000000  -0.000000   0.000007   0.007173
     6  C   -0.000000   0.000000   0.000000   0.000000  -0.032853
     7  C   -0.000000   0.000000   0.000000   0.000001   0.000000
     8  C    0.002469   0.000110  -0.000505   0.004984  -0.000001
     9  C    0.000000  -0.000000   0.000000  -0.000012  -0.000000
    10  C    0.000001   0.000002  -0.000005  -0.000086   0.000000
    11  C    0.000063   0.000072  -0.000186   0.000500  -0.000000
    12  C   -0.002389  -0.001878   0.003490  -0.029700  -0.000000
    13  C   -0.000000  -0.000000  -0.000000  -0.000080   0.000003
    14  C    0.000090  -0.000168   0.000021   0.000531  -0.000000
    15  C   -0.003974   0.003429  -0.001583  -0.032632   0.000000
    16  C   -0.000045   0.000008   0.000008  -0.002824   0.000006
    17  C    0.393104   0.387975   0.388702  -0.028564  -0.000000
    18  N   -0.029963  -0.028417  -0.029192   0.333676   0.000000
    19  O   -0.000000  -0.000000  -0.000000  -0.000000   0.000000
    20  O    0.000000   0.000000   0.000000  -0.000000  -0.000097
    21  O   -0.000000  -0.000000   0.000000  -0.000000   0.301500
    22  H   -0.000003   0.000000  -0.000000  -0.000000  -0.000015
    23  H    0.000000   0.000000  -0.000000   0.000000   0.005788
    24  H   -0.000209  -0.000002  -0.000030  -0.000119   0.000000
    25  H    0.005062   0.000004   0.000040   0.000016   0.000000
    26  H   -0.000000   0.000000   0.000000   0.000001   0.000000
    27  H    0.000000   0.000000   0.000000   0.000000  -0.000000
    28  H    0.000000   0.000000  -0.000001  -0.000015  -0.000000
    29  H   -0.000000   0.000000   0.000000   0.000020   0.000000
    30  H   -0.000001  -0.000014   0.000005   0.003906   0.000000
    31  H    0.000000  -0.000001   0.000002  -0.000107  -0.000000
    32  H    0.002989  -0.000699   0.000004   0.004430   0.000000
    33  H   -0.000479   0.004134   0.000001  -0.005341  -0.000000
    34  H    0.000000   0.000000   0.000000   0.000005  -0.000000
    35  H   -0.000006  -0.000004   0.000007   0.009364   0.000000
    36  H   -0.000378   0.000017   0.004574  -0.003894  -0.000000
    37  H    0.488522  -0.022384  -0.023425   0.004020  -0.000000
    38  H   -0.022384   0.506659  -0.023783  -0.003344   0.000000
    39  H   -0.023425  -0.023783   0.507834  -0.003151   0.000000
    40  H    0.004020  -0.003344  -0.003151   0.414630   0.000000
    41  H   -0.000000   0.000000   0.000000   0.000000   0.391231
 Mulliken charges:
               1
     1  C   -0.146456
     2  C   -0.131001
     3  C    0.067866
     4  C    0.019035
     5  C    0.355807
     6  C    0.296434
     7  C    0.440537
     8  C   -0.265202
     9  C   -0.266549
    10  C   -0.208349
    11  C   -0.208815
    12  C   -0.091720
    13  C    0.062944
    14  C   -0.097832
    15  C    0.013080
    16  C   -0.055269
    17  C   -0.206440
    18  N   -0.450987
    19  O   -0.393325
    20  O   -0.514501
    21  O   -0.537081
    22  H    0.101418
    23  H    0.111398
    24  H    0.168256
    25  H    0.129228
    26  H    0.132687
    27  H    0.161189
    28  H    0.123616
    29  H    0.140367
    30  H    0.122972
    31  H    0.170615
    32  H    0.185403
    33  H    0.167994
    34  H    0.143380
    35  H    0.099489
    36  H    0.149369
    37  H    0.187276
    38  H    0.178296
    39  H    0.177147
    40  H    0.333670
    41  H    0.334055
 Sum of Mulliken charges =   1.00000
 Mulliken charges with hydrogens summed into heavy atoms:
               1
     1  C   -0.045039
     2  C   -0.019603
     3  C    0.067866
     4  C    0.019035
     5  C    0.355807
     6  C    0.296434
     7  C    0.440537
     8  C    0.032282
     9  C    0.027327
    10  C    0.055634
    11  C    0.084772
    12  C    0.261677
    13  C    0.206324
    14  C    0.001657
    15  C    0.162449
    16  C   -0.055269
    17  C    0.336279
    18  N   -0.117318
    19  O   -0.393325
    20  O   -0.514501
    21  O   -0.203026
 Electronic spatial extent (au):  <R**2>=           4926.6780
 Charge=              1.0000 electrons
 Dipole moment (field-independent basis, Debye):
    X=            -13.7723    Y=             -2.2818    Z=              0.1568  Tot=             13.9609
 Quadrupole moment (field-independent basis, Debye-Ang):
   XX=            -78.2469   YY=            -98.1904   ZZ=           -108.4016
   XY=            -12.0571   XZ=             -8.7452   YZ=              3.1886
 Traceless Quadrupole moment (field-independent basis, Debye-Ang):
   XX=             16.6994   YY=             -3.2441   ZZ=            -13.4553
   XY=            -12.0571   XZ=             -8.7452   YZ=              3.1886
 Octapole moment (field-independent basis, Debye-Ang**2):
  XXX=           -160.4537  YYY=            -19.6438  ZZZ=             12.5324  XYY=             18.8291
  XXY=            -84.5417  XXZ=              5.6535  XZZ=            -20.7605  YZZ=              4.6361
  YYZ=            -10.5944  XYZ=             11.4004
 Hexadecapole moment (field-independent basis, Debye-Ang**3):
 XXXX=          -2471.0453 YYYY=          -1933.7641 ZZZZ=           -873.1101 XXXY=           -180.7343
 XXXZ=           -109.0460 YYYX=           -152.3350 YYYZ=             32.2485 ZZZX=            -15.5172
 ZZZY=            -11.9977 XXYY=           -728.1334 XXZZ=           -654.1419 YYZZ=           -465.3509
 XXYZ=             20.7263 YYXZ=            -13.7296 ZZXY=             17.1662
 N-N= 1.843150849902D+03 E-N=-5.851457216812D+03  KE= 9.313838341767D+02
 1\1\GINC-CPU195\FOpt\RB3LYP\6-31G(d,p)\C17H20N1O3(1+)\FEBRERMA\05-Feb-
 2024\0\\# B3LYP/6-31G** opt=Modredundant\\G4\\1,1\C,-0.1038848407,-1.0
 467668801,-0.2544742136\C,-0.9295440455,-1.4434529913,-1.3205519295\C,
 0.6211186677,-2.009095325,0.4805754002\C,0.4547386797,-3.3257172572,0.
 1112965932\C,-0.2989861897,-3.7186013332,-0.9792347162\C,-1.0279330957
 ,-2.7934623764,-1.7055995251\C,2.2307934681,-5.3830437914,-1.389053504
 6\C,1.6363064325,-1.6734343628,1.5643139853\C,3.5812589193,-5.12826180
 64,-0.7441227776\C,3.5119645299,-3.9031482117,0.1714120714\C,0.2029975
 15,-4.9932493017,1.9406658927\C,0.0965584512,-3.9652210371,3.078537697
 8\C,1.0060409726,-5.4610729337,-0.4557192281\C,2.4831529763,-4.1377176
 405,1.2987799406\C,2.2991217163,-2.9115819216,2.243228171\C,1.08785996
 3,-4.515202359,0.7628187945\C,1.4072168867,-2.457081402,4.5950076769\N
 ,1.4673321459,-3.4191903301,3.4384808339\O,2.1380874843,-5.5819709781,
 -2.5773381224\O,-0.1697791929,-5.0718701931,-1.2412389916\O,-1.7851410
 234,-3.1597673848,-2.7680345714\H,-0.0152734274,0.0089035109,-0.014240
 7125\H,-1.4758653574,-0.6843434504,-1.8731394406\H,2.4387560626,-1.104
 1730909,1.0802131774\H,1.1853445672,-0.9999303571,2.3003675158\H,3.878
 3385316,-6.0297148645,-0.1889842241\H,4.3191767695,-4.9569150405,-1.52
 99741866\H,4.500127433,-3.7206728725,0.6099309912\H,3.2610376779,-3.01
 71025009,-0.4207933661\H,0.6227715484,-5.9263423992,2.3445301274\H,-0.
 8078153888,-5.2373974054,1.6018410795\H,-0.5418580119,-3.120578424,2.8
 136021281\H,-0.3102411735,-4.4361049849,3.9763385013\H,0.8943399047,-6
 .5087024005,-0.1516063771\H,2.8745649204,-4.9809306595,1.8914168045\H,
 3.2632005159,-2.6224964278,2.6703242033\H,0.8613014666,-1.5637350788,4
 .2984310303\H,0.896952487,-2.9436264891,5.4266056268\H,2.4246857675,-2
 .1890766339,4.8816893576\H,1.9925588762,-4.2208218479,3.803619501\H,-2
 .1972835902,-2.379228766,-3.1604212146\\Version=ES64L-G16RevA.03\State
 =1-A\HF=-940.0569587\RMSD=3.599e-09\RMSF=5.139e-03\Dipole=0.9105393,1.
 3357477,5.2493671\Quadrupole=-5.3146502,-6.4872396,11.8018898,-5.79827
 82,8.4914015,-6.9092976\PG=C01 [X(C17H20N1O3)]\\@


 Boundary, n.  In political geography, an imaginary
 line between two nations, separating the imaginary
 rights of one from the imaginary rights of another.
                               -- Ambrose Bierce
 Job cpu time:       0 days  1 hours  8 minutes 55.4 seconds.
 Elapsed time:       0 days  0 hours  8 minutes 41.0 seconds.
 File lengths (MBytes):  RWF=    113 Int=      0 D2E=      0 Chk=     15 Scr=      1
 Normal termination of Gaussian 16 at Mon Feb  5 15:31:03 2024.
