 Entering Gaussian System, Link 0=g16
 Initial command:
 /opt/ebsofts/Gaussian/g16/l1.exe "/scratch/Gau-4004725.inp" -scrdir="/scratch/"
 Entering Link 1 = /opt/ebsofts/Gaussian/g16/l1.exe PID=   4004726.
  
 Copyright (c) 1988,1990,1992,1993,1995,1998,2003,2009,2016,
            Gaussian, Inc.  All Rights Reserved.
  
 This is part of the Gaussian(R) 16 program.  It is based on
 the Gaussian(R) 09 system (copyright 2009, Gaussian, Inc.),
 the Gaussian(R) 03 system (copyright 2003, Gaussian, Inc.),
 the Gaussian(R) 98 system (copyright 1998, Gaussian, Inc.),
 the Gaussian(R) 94 system (copyright 1995, Gaussian, Inc.),
 the Gaussian 92(TM) system (copyright 1992, Gaussian, Inc.),
 the Gaussian 90(TM) system (copyright 1990, Gaussian, Inc.),
 the Gaussian 88(TM) system (copyright 1988, Gaussian, Inc.),
 the Gaussian 86(TM) system (copyright 1986, Carnegie Mellon
 University), and the Gaussian 82(TM) system (copyright 1983,
 Carnegie Mellon University). Gaussian is a federally registered
 trademark of Gaussian, Inc.
  
 This software contains proprietary and confidential information,
 including trade secrets, belonging to Gaussian, Inc.
  
 This software is provided under written license and may be
 used, copied, transmitted, or stored only in accord with that
 written license.
  
 The following legend is applicable only to US Government
 contracts under FAR:
  
                    RESTRICTED RIGHTS LEGEND
  
 Use, reproduction and disclosure by the US Government is
 subject to restrictions as set forth in subparagraphs (a)
 and (c) of the Commercial Computer Software - Restricted
 Rights clause in FAR 52.227-19.
  
 Gaussian, Inc.
 340 Quinnipiac St., Bldg. 40, Wallingford CT 06492
  
  
 ---------------------------------------------------------------
 Warning -- This program may not be used in any manner that
 competes with the business of Gaussian, Inc. or will provide
 assistance to any competitor of Gaussian, Inc.  The licensee
 of this program is prohibited from giving any competitor of
 Gaussian, Inc. access to this program.  By using this program,
 the user acknowledges that Gaussian, Inc. is engaged in the
 business of creating and licensing software in the field of
 computational chemistry and represents and warrants to the
 licensee that it is not a competitor of Gaussian, Inc. and that
 it will not use this program in any manner prohibited above.
 ---------------------------------------------------------------
  

 Cite this work as:
 Gaussian 16, Revision A.03,
 M. J. Frisch, G. W. Trucks, H. B. Schlegel, G. E. Scuseria, 
 M. A. Robb, J. R. Cheeseman, G. Scalmani, V. Barone, 
 G. A. Petersson, H. Nakatsuji, X. Li, M. Caricato, A. V. Marenich, 
 J. Bloino, B. G. Janesko, R. Gomperts, B. Mennucci, H. P. Hratchian, 
 J. V. Ortiz, A. F. Izmaylov, J. L. Sonnenberg, D. Williams-Young, 
 F. Ding, F. Lipparini, F. Egidi, J. Goings, B. Peng, A. Petrone, 
 T. Henderson, D. Ranasinghe, V. G. Zakrzewski, J. Gao, N. Rega, 
 G. Zheng, W. Liang, M. Hada, M. Ehara, K. Toyota, R. Fukuda, 
 J. Hasegawa, M. Ishida, T. Nakajima, Y. Honda, O. Kitao, H. Nakai, 
 T. Vreven, K. Throssell, J. A. Montgomery, Jr., J. E. Peralta, 
 F. Ogliaro, M. J. Bearpark, J. J. Heyd, E. N. Brothers, K. N. Kudin, 
 V. N. Staroverov, T. A. Keith, R. Kobayashi, J. Normand, 
 K. Raghavachari, A. P. Rendell, J. C. Burant, S. S. Iyengar, 
 J. Tomasi, M. Cossi, J. M. Millam, M. Klene, C. Adamo, R. Cammi, 
 J. W. Ochterski, R. L. Martin, K. Morokuma, O. Farkas, 
 J. B. Foresman, and D. J. Fox, Gaussian, Inc., Wallingford CT, 2016.
 
 ******************************************
 Gaussian 16:  ES64L-G16RevA.03 25-Dec-2016
                 5-Feb-2024 
 ******************************************
 %Chk=G4.chk
 %nprocshared=8
 Will use up to    8 processors via shared memory.
 %mem=1GB
 ----------------------------------------------------------------------
 # HF/6-31G** SCRF=(Solvent=Water) POP=MK iop(6/50=1) geom=allcheck gue
 ss=read
 ----------------------------------------------------------------------
 1/29=7,38=1,172=1/1;
 2/12=2,40=1/2;
 3/5=1,6=6,7=101,11=9,14=-4,25=1,30=1,70=2201,72=1,116=-2/1,2,3;
 4/5=1/1;
 5/5=2,38=6,53=1/2;
 6/7=2,8=2,9=2,10=2,15=8,20=1,28=1,50=1/1,2;
 99/5=1,9=1/99;
 Structure from the checkpoint file:  "G4.chk"
 --
 G4
 --
 Charge =  1 Multiplicity = 1
 Redundant internal coordinates found in file.  (old form).
 C,0,-0.1038848407,-1.0467668801,-0.2544742136
 C,0,-0.9295440455,-1.4434529913,-1.3205519295
 C,0,0.6211186677,-2.009095325,0.4805754002
 C,0,0.4547386797,-3.3257172572,0.1112965932
 C,0,-0.2989861897,-3.7186013332,-0.9792347162
 C,0,-1.0279330957,-2.7934623764,-1.7055995251
 C,0,2.2307934681,-5.3830437914,-1.3890535046
 C,0,1.6363064325,-1.6734343628,1.5643139853
 C,0,3.5812589193,-5.1282618064,-0.7441227776
 C,0,3.5119645299,-3.9031482117,0.1714120714
 C,0,0.202997515,-4.9932493017,1.9406658927
 C,0,0.0965584512,-3.9652210371,3.0785376978
 C,0,1.0060409726,-5.4610729337,-0.4557192281
 C,0,2.4831529763,-4.1377176405,1.2987799406
 C,0,2.2991217163,-2.9115819216,2.243228171
 C,0,1.087859963,-4.515202359,0.7628187945
 C,0,1.4072168867,-2.457081402,4.5950076769
 N,0,1.4673321459,-3.4191903301,3.4384808339
 O,0,2.1380874843,-5.5819709781,-2.5773381224
 O,0,-0.1697791929,-5.0718701931,-1.2412389916
 O,0,-1.7851410234,-3.1597673848,-2.7680345714
 H,0,-0.0152734274,0.0089035109,-0.0142407125
 H,0,-1.4758653574,-0.6843434504,-1.8731394406
 H,0,2.4387560626,-1.1041730909,1.0802131774
 H,0,1.1853445672,-0.9999303571,2.3003675158
 H,0,3.8783385316,-6.0297148645,-0.1889842241
 H,0,4.3191767695,-4.9569150405,-1.5299741866
 H,0,4.500127433,-3.7206728725,0.6099309912
 H,0,3.2610376779,-3.0171025009,-0.4207933661
 H,0,0.6227715484,-5.9263423992,2.3445301274
 H,0,-0.8078153888,-5.2373974054,1.6018410795
 H,0,-0.5418580119,-3.120578424,2.8136021281
 H,0,-0.3102411735,-4.4361049849,3.9763385013
 H,0,0.8943399047,-6.5087024005,-0.1516063771
 H,0,2.8745649204,-4.9809306595,1.8914168045
 H,0,3.2632005159,-2.6224964278,2.6703242033
 H,0,0.8613014666,-1.5637350788,4.2984310303
 H,0,0.896952487,-2.9436264891,5.4266056268
 H,0,2.4246857675,-2.1890766339,4.8816893576
 H,0,1.9925588762,-4.2208218479,3.803619501
 H,0,-2.1972835902,-2.379228766,-3.1604212146
 Recover connectivity data from disk.
                           ----------------------------
                           !    Current Parameters    !
                           ! (Angstroms and Degrees)  !
 --------------------------                            --------------------------
 ! Name  Definition              Value                                          !
 --------------------------------------------------------------------------------
 ! R1    R(1,2)                  1.4056                                         !
 ! R2    R(1,3)                  1.4114                                         !
 ! R3    R(1,22)                 1.0863                                         !
 ! R4    R(2,6)                  1.4073                                         !
 ! R5    R(2,23)                 1.0863                                         !
 ! R6    R(3,4)                  1.3775                                         !
 ! R7    R(3,8)                  1.5224                                         !
 ! R8    R(4,5)                  1.3826                                         !
 ! R9    R(4,16)                 1.4967                                         !
 ! R10   R(5,6)                  1.3838                                         !
 ! R11   R(5,20)                 1.3844                                         !
 ! R12   R(6,21)                 1.3551                                         !
 ! R13   R(7,9)                  1.5181                                         !
 ! R14   R(7,13)                 1.5418                                         !
 ! R15   R(7,19)                 1.2084                                         !
 ! R16   R(8,15)                 1.5599                                         !
 ! R17   R(8,24)                 1.0965                                         !
 ! R18   R(8,25)                 1.0949                                         !
 ! R19   R(9,10)                 1.531                                          !
 ! R20   R(9,26)                 1.0996                                         !
 ! R21   R(9,27)                 1.0915                                         !
 ! R22   R(10,14)                1.5442                                         !
 ! R23   R(10,28)                1.0964                                         !
 ! R24   R(10,29)                1.0949                                         !
 ! R25   R(11,12)                1.5372                                         !
 ! R26   R(11,16)                1.5488                                         !
 ! R27   R(11,30)                1.1                                            !
 ! R28   R(11,31)                1.0937                                         !
 ! R29   R(12,18)                1.5188                                         !
 ! R30   R(12,32)                1.0914                                         !
 ! R31   R(12,33)                1.0924                                         !
 ! R32   R(13,16)                1.5447                                         !
 ! R33   R(13,20)                1.4667                                         !
 ! R34   R(13,34)                1.0966                                         !
 ! R35   R(14,15)                1.5586                                         !
 ! R36   R(14,16)                1.5416                                         !
 ! R37   R(14,35)                1.1025                                         !
 ! R38   R(15,18)                1.5421                                         !
 ! R39   R(15,36)                1.0934                                         !
 ! R40   R(17,18)                1.5056                                         !
 ! R41   R(17,37)                1.0881                                         !
 ! R42   R(17,38)                1.0903                                         !
 ! R43   R(17,39)                1.0905                                         !
 ! R44   R(18,40)                1.0256                                         !
 ! R45   R(21,41)                0.966                                          !
 ! A1    A(2,1,3)              120.287                                          !
 ! A2    A(2,1,22)             119.336                                          !
 ! A3    A(3,1,22)             120.3673                                         !
 ! A4    A(1,2,6)              121.2875                                         !
 ! A5    A(1,2,23)             118.9488                                         !
 ! A6    A(6,2,23)             119.7365                                         !
 ! A7    A(1,3,4)              116.7459                                         !
 ! A8    A(1,3,8)              124.2594                                         !
 ! A9    A(4,3,8)              118.8229                                         !
 ! A10   A(3,4,5)              123.2898                                         !
 ! A11   A(3,4,16)             126.2855                                         !
 ! A12   A(5,4,16)             110.3711                                         !
 ! A13   A(4,5,6)              120.744                                          !
 ! A14   A(4,5,20)             112.0951                                         !
 ! A15   A(6,5,20)             127.1087                                         !
 ! A16   A(2,6,5)              117.4449                                         !
 ! A17   A(2,6,21)             120.8568                                         !
 ! A18   A(5,6,21)             121.6802                                         !
 ! A19   A(9,7,13)             117.256                                          !
 ! A20   A(9,7,19)             120.9066                                         !
 ! A21   A(13,7,19)            121.7358                                         !
 ! A22   A(3,8,15)             114.7185                                         !
 ! A23   A(3,8,24)             106.7491                                         !
 ! A24   A(3,8,25)             109.8482                                         !
 ! A25   A(15,8,24)            107.0537                                         !
 ! A26   A(15,8,25)            111.7578                                         !
 ! A27   A(24,8,25)            106.1929                                         !
 ! A28   A(7,9,10)             110.3703                                         !
 ! A29   A(7,9,26)             108.4959                                         !
 ! A30   A(7,9,27)             108.7766                                         !
 ! A31   A(10,9,26)            111.4906                                         !
 ! A32   A(10,9,27)            109.604                                          !
 ! A33   A(26,9,27)            108.0306                                         !
 ! A34   A(9,10,14)            110.1935                                         !
 ! A35   A(9,10,28)            109.3642                                         !
 ! A36   A(9,10,29)            109.5425                                         !
 ! A37   A(14,10,28)           109.4975                                         !
 ! A38   A(14,10,29)           111.4158                                         !
 ! A39   A(28,10,29)           106.7508                                         !
 ! A40   A(12,11,16)           113.333                                          !
 ! A41   A(12,11,30)           108.7809                                         !
 ! A42   A(12,11,31)           108.338                                          !
 ! A43   A(16,11,30)           108.8452                                         !
 ! A44   A(16,11,31)           111.1817                                         !
 ! A45   A(30,11,31)           106.086                                          !
 ! A46   A(11,12,18)           110.6936                                         !
 ! A47   A(11,12,32)           112.2333                                         !
 ! A48   A(11,12,33)           110.2359                                         !
 ! A49   A(18,12,32)           107.8928                                         !
 ! A50   A(18,12,33)           107.2357                                         !
 ! A51   A(32,12,33)           108.3775                                         !
 ! A52   A(7,13,16)            113.8569                                         !
 ! A53   A(7,13,20)            107.409                                          !
 ! A54   A(7,13,34)            107.2861                                         !
 ! A55   A(16,13,20)           107.6055                                         !
 ! A56   A(16,13,34)           111.8153                                         !
 ! A57   A(20,13,34)           108.6866                                         !
 ! A58   A(10,14,15)           113.676                                          !
 ! A59   A(10,14,16)           112.7303                                         !
 ! A60   A(10,14,35)           105.7894                                         !
 ! A61   A(15,14,16)           107.2433                                         !
 ! A62   A(15,14,35)           108.5346                                         !
 ! A63   A(16,14,35)           108.7198                                         !
 ! A64   A(8,15,14)            114.2591                                         !
 ! A65   A(8,15,18)            111.6795                                         !
 ! A66   A(8,15,36)            109.5615                                         !
 ! A67   A(14,15,18)           105.926                                          !
 ! A68   A(14,15,36)           109.9129                                         !
 ! A69   A(18,15,36)           105.0623                                         !
 ! A70   A(4,16,11)            109.5519                                         !
 ! A71   A(4,16,13)             96.9407                                         !
 ! A72   A(4,16,14)            109.852                                          !
 ! A73   A(11,16,13)           112.3733                                         !
 ! A74   A(11,16,14)           109.1641                                         !
 ! A75   A(13,16,14)           118.172                                          !
 ! A76   A(18,17,37)           109.5905                                         !
 ! A77   A(18,17,38)           108.6282                                         !
 ! A78   A(18,17,39)           108.7673                                         !
 ! A79   A(37,17,38)           109.8443                                         !
 ! A80   A(37,17,39)           109.7533                                         !
 ! A81   A(38,17,39)           110.2322                                         !
 ! A82   A(12,18,15)           114.927                                          !
 ! A83   A(12,18,17)           112.0706                                         !
 ! A84   A(12,18,40)           105.4016                                         !
 ! A85   A(15,18,17)           113.9891                                         !
 ! A86   A(15,18,40)           104.8924                                         !
 ! A87   A(17,18,40)           104.2673                                         !
 ! A88   A(5,20,13)            103.4652                                         !
 ! A89   A(6,21,41)            109.7837                                         !
 ! D1    D(3,1,2,6)             -1.7507         Frozen                          !
 ! D2    D(3,1,2,23)          -179.8513         Frozen                          !
 ! D3    D(22,1,2,6)           177.118          Frozen                          !
 ! D4    D(22,1,2,23)           -0.9826         Frozen                          !
 ! D5    D(2,1,3,4)             -1.0377         Frozen                          !
 ! D6    D(2,1,3,8)            174.1295         Frozen                          !
 ! D7    D(22,1,3,4)          -179.8946         Frozen                          !
 ! D8    D(22,1,3,8)            -4.7275         Frozen                          !
 ! D9    D(1,2,6,5)              1.1207         Frozen                          !
 ! D10   D(1,2,6,21)          -177.3588         Frozen                          !
 ! D11   D(23,2,6,5)           179.2066         Frozen                          !
 ! D12   D(23,2,6,21)            0.7271         Frozen                          !
 ! D13   D(1,3,4,5)              4.6064         Frozen                          !
 ! D14   D(1,3,4,16)          -178.3174         Frozen                          !
 ! D15   D(8,3,4,5)           -170.835          Frozen                          !
 ! D16   D(8,3,4,16)             6.2412         Frozen                          !
 ! D17   D(1,3,8,15)           179.4856         Frozen                          !
 ! D18   D(1,3,8,24)           -62.11           Frozen                          !
 ! D19   D(1,3,8,25)            52.6145         Frozen                          !
 ! D20   D(4,3,8,15)            -5.4408         Frozen                          !
 ! D21   D(4,3,8,24)           112.9637         Frozen                          !
 ! D22   D(4,3,8,25)          -132.3118         Frozen                          !
 ! D23   D(3,4,5,6)             -5.391          Frozen                          !
 ! D24   D(3,4,5,20)           172.1614         Frozen                          !
 ! D25   D(16,4,5,6)           177.1227         Frozen                          !
 ! D26   D(16,4,5,20)           -5.3248         Frozen                          !
 ! D27   D(3,4,16,11)           87.1394         Frozen                          !
 ! D28   D(3,4,16,13)         -156.1076         Frozen                          !
 ! D29   D(3,4,16,14)          -32.7676         Frozen                          !
 ! D30   D(5,4,16,11)          -95.4674         Frozen                          !
 ! D31   D(5,4,16,13)           21.2856         Frozen                          !
 ! D32   D(5,4,16,14)          144.6256         Frozen                          !
 ! D33   D(4,5,6,2)              2.3064         Frozen                          !
 ! D34   D(4,5,6,21)          -179.2274         Frozen                          !
 ! D35   D(20,5,6,2)          -174.8496         Frozen                          !
 ! D36   D(20,5,6,21)            3.6165         Frozen                          !
 ! D37   D(4,5,20,13)          -14.6875         Frozen                          !
 ! D38   D(6,5,20,13)          162.6746         Frozen                          !
 ! D39   D(2,6,21,41)           -0.0019         Frozen                          !
 ! D40   D(5,6,21,41)         -178.4163         Frozen                          !
 ! D41   D(13,7,9,10)          -51.6686         Frozen                          !
 ! D42   D(13,7,9,26)           70.7622         Frozen                          !
 ! D43   D(13,7,9,27)         -171.9503         Frozen                          !
 ! D44   D(19,7,9,10)          131.9343         Frozen                          !
 ! D45   D(19,7,9,26)         -105.6348         Frozen                          !
 ! D46   D(19,7,9,27)           11.6527         Frozen                          !
 ! D47   D(9,7,13,16)           34.4747         Frozen                          !
 ! D48   D(9,7,13,20)          153.5043         Frozen                          !
 ! D49   D(9,7,13,34)          -89.8012         Frozen                          !
 ! D50   D(19,7,13,16)        -149.1602         Frozen                          !
 ! D51   D(19,7,13,20)         -30.1306         Frozen                          !
 ! D52   D(19,7,13,34)          86.5639         Frozen                          !
 ! D53   D(3,8,15,14)           32.5763         Frozen                          !
 ! D54   D(3,8,15,18)          -87.6247         Frozen                          !
 ! D55   D(3,8,15,36)          156.3968         Frozen                          !
 ! D56   D(24,8,15,14)         -85.6564         Frozen                          !
 ! D57   D(24,8,15,18)         154.1426         Frozen                          !
 ! D58   D(24,8,15,36)          38.1641         Frozen                          !
 ! D59   D(25,8,15,14)         158.4625         Frozen                          !
 ! D60   D(25,8,15,18)          38.2615         Frozen                          !
 ! D61   D(25,8,15,36)         -77.717          Frozen                          !
 ! D62   D(7,9,10,14)           60.8788         Frozen                          !
 ! D63   D(7,9,10,28)         -178.7092         Frozen                          !
 ! D64   D(7,9,10,29)          -62.0352         Frozen                          !
 ! D65   D(26,9,10,14)         -59.7767         Frozen                          !
 ! D66   D(26,9,10,28)          60.6352         Frozen                          !
 ! D67   D(26,9,10,29)         177.3093         Frozen                          !
 ! D68   D(27,9,10,14)        -179.3377         Frozen                          !
 ! D69   D(27,9,10,28)         -58.9257         Frozen                          !
 ! D70   D(27,9,10,29)          57.7483         Frozen                          !
 ! D71   D(9,10,14,15)        -177.3382         Frozen                          !
 ! D72   D(9,10,14,16)         -55.0203         Frozen                          !
 ! D73   D(9,10,14,35)          63.6698         Frozen                          !
 ! D74   D(28,10,14,15)         62.3301         Frozen                          !
 ! D75   D(28,10,14,16)       -175.3519         Frozen                          !
 ! D76   D(28,10,14,35)        -56.6619         Frozen                          !
 ! D77   D(29,10,14,15)        -55.5283         Frozen                          !
 ! D78   D(29,10,14,16)         66.7896         Frozen                          !
 ! D79   D(29,10,14,35)       -174.5203         Frozen                          !
 ! D80   D(16,11,12,18)        -46.9533         Frozen                          !
 ! D81   D(16,11,12,32)         73.6582         Frozen                          !
 ! D82   D(16,11,12,33)       -165.4315         Frozen                          !
 ! D83   D(30,11,12,18)         74.2615         Frozen                          !
 ! D84   D(30,11,12,32)       -165.127          Frozen                          !
 ! D85   D(30,11,12,33)        -44.2167         Frozen                          !
 ! D86   D(31,11,12,18)       -170.8387         Frozen                          !
 ! D87   D(31,11,12,32)        -50.2272         Frozen                          !
 ! D88   D(31,11,12,33)         70.683          Frozen                          !
 ! D89   D(12,11,16,4)         -64.6026         Frozen                          !
 ! D90   D(12,11,16,13)       -171.1531         Frozen                          !
 ! D91   D(12,11,16,14)         55.7245         Frozen                          !
 ! D92   D(30,11,16,4)         174.2187         Frozen                          !
 ! D93   D(30,11,16,13)         67.6683         Frozen                          !
 ! D94   D(30,11,16,14)        -65.4542         Frozen                          !
 ! D95   D(31,11,16,4)          57.7156         Frozen                          !
 ! D96   D(31,11,16,13)        -48.8348         Frozen                          !
 ! D97   D(31,11,16,14)        178.0427         Frozen                          !
 ! D98   D(11,12,18,15)         50.4767         Frozen                          !
 ! D99   D(11,12,18,17)       -177.2848         Frozen                          !
 ! D100  D(11,12,18,40)        -64.4836         Frozen                          !
 ! D101  D(32,12,18,15)        -72.6838         Frozen                          !
 ! D102  D(32,12,18,17)         59.5548         Frozen                          !
 ! D103  D(32,12,18,40)        172.3559         Frozen                          !
 ! D104  D(33,12,18,15)        170.7625         Frozen                          !
 ! D105  D(33,12,18,17)        -56.999          Frozen                          !
 ! D106  D(33,12,18,40)         55.8022         Frozen                          !
 ! D107  D(7,13,16,4)           88.9532         Frozen                          !
 ! D108  D(7,13,16,11)        -156.5473         Frozen                          !
 ! D109  D(7,13,16,14)         -28.0003         Frozen                          !
 ! D110  D(20,13,16,4)         -29.9644         Frozen                          !
 ! D111  D(20,13,16,11)         84.535          Frozen                          !
 ! D112  D(20,13,16,14)       -146.918          Frozen                          !
 ! D113  D(34,13,16,4)        -149.2448         Frozen                          !
 ! D114  D(34,13,16,11)        -34.7453         Frozen                          !
 ! D115  D(34,13,16,14)         93.8017         Frozen                          !
 ! D116  D(7,13,20,5)          -94.2989         Frozen                          !
 ! D117  D(16,13,20,5)          28.671          Frozen                          !
 ! D118  D(34,13,20,5)         149.9293         Frozen                          !
 ! D119  D(10,14,15,8)          67.4486         Frozen                          !
 ! D120  D(10,14,15,18)       -169.187          Frozen                          !
 ! D121  D(10,14,15,36)        -56.1831         Frozen                          !
 ! D122  D(16,14,15,8)         -57.8511         Frozen                          !
 ! D123  D(16,14,15,18)         65.5133         Frozen                          !
 ! D124  D(16,14,15,36)        178.5172         Frozen                          !
 ! D125  D(35,14,15,8)        -175.1407         Frozen                          !
 ! D126  D(35,14,15,18)        -51.7762         Frozen                          !
 ! D127  D(35,14,15,36)         61.2277         Frozen                          !
 ! D128  D(10,14,16,4)         -70.617          Frozen                          !
 ! D129  D(10,14,16,11)        169.2402         Frozen                          !
 ! D130  D(10,14,16,13)         39.2055         Frozen                          !
 ! D131  D(15,14,16,4)          55.2492         Frozen                          !
 ! D132  D(15,14,16,11)        -64.8936         Frozen                          !
 ! D133  D(15,14,16,13)        165.0717         Frozen                          !
 ! D134  D(35,14,16,4)         172.4174         Frozen                          !
 ! D135  D(35,14,16,11)         52.2746         Frozen                          !
 ! D136  D(35,14,16,13)        -77.7601         Frozen                          !
 ! D137  D(8,15,18,12)          64.937          Frozen                          !
 ! D138  D(8,15,18,17)         -66.3887         Frozen                          !
 ! D139  D(8,15,18,40)        -179.8085         Frozen                          !
 ! D140  D(14,15,18,12)        -60.0382         Frozen                          !
 ! D141  D(14,15,18,17)        168.6361         Frozen                          !
 ! D142  D(14,15,18,40)         55.2163         Frozen                          !
 ! D143  D(36,15,18,12)       -176.3707         Frozen                          !
 ! D144  D(36,15,18,17)         52.3036         Frozen                          !
 ! D145  D(36,15,18,40)        -61.1162         Frozen                          !
 ! D146  D(37,17,18,12)        -66.4938         Frozen                          !
 ! D147  D(37,17,18,15)         66.2107         Frozen                          !
 ! D148  D(37,17,18,40)       -179.9975         Frozen                          !
 ! D149  D(38,17,18,12)         53.5202         Frozen                          !
 ! D150  D(38,17,18,15)       -173.7753         Frozen                          !
 ! D151  D(38,17,18,40)        -59.9835         Frozen                          !
 ! D152  D(39,17,18,12)        173.5186         Frozen                          !
 ! D153  D(39,17,18,15)        -53.7769         Frozen                          !
 ! D154  D(39,17,18,40)         60.0149         Frozen                          !
 --------------------------------------------------------------------------------
                          Input orientation:                          
 ---------------------------------------------------------------------
 Center     Atomic      Atomic             Coordinates (Angstroms)
 Number     Number       Type             X           Y           Z
 ---------------------------------------------------------------------
      1          6           0       -0.103885   -1.046767   -0.254474
      2          6           0       -0.929544   -1.443453   -1.320552
      3          6           0        0.621119   -2.009095    0.480575
      4          6           0        0.454739   -3.325717    0.111297
      5          6           0       -0.298986   -3.718601   -0.979235
      6          6           0       -1.027933   -2.793462   -1.705600
      7          6           0        2.230793   -5.383044   -1.389054
      8          6           0        1.636306   -1.673434    1.564314
      9          6           0        3.581259   -5.128262   -0.744123
     10          6           0        3.511965   -3.903148    0.171412
     11          6           0        0.202998   -4.993249    1.940666
     12          6           0        0.096558   -3.965221    3.078538
     13          6           0        1.006041   -5.461073   -0.455719
     14          6           0        2.483153   -4.137718    1.298780
     15          6           0        2.299122   -2.911582    2.243228
     16          6           0        1.087860   -4.515202    0.762819
     17          6           0        1.407217   -2.457081    4.595008
     18          7           0        1.467332   -3.419190    3.438481
     19          8           0        2.138087   -5.581971   -2.577338
     20          8           0       -0.169779   -5.071870   -1.241239
     21          8           0       -1.785141   -3.159767   -2.768035
     22          1           0       -0.015273    0.008904   -0.014241
     23          1           0       -1.475865   -0.684343   -1.873139
     24          1           0        2.438756   -1.104173    1.080213
     25          1           0        1.185345   -0.999930    2.300368
     26          1           0        3.878339   -6.029715   -0.188984
     27          1           0        4.319177   -4.956915   -1.529974
     28          1           0        4.500127   -3.720673    0.609931
     29          1           0        3.261038   -3.017103   -0.420793
     30          1           0        0.622772   -5.926342    2.344530
     31          1           0       -0.807815   -5.237397    1.601841
     32          1           0       -0.541858   -3.120578    2.813602
     33          1           0       -0.310241   -4.436105    3.976339
     34          1           0        0.894340   -6.508702   -0.151606
     35          1           0        2.874565   -4.980931    1.891417
     36          1           0        3.263201   -2.622496    2.670324
     37          1           0        0.861301   -1.563735    4.298431
     38          1           0        0.896952   -2.943626    5.426606
     39          1           0        2.424686   -2.189077    4.881689
     40          1           0        1.992559   -4.220822    3.803620
     41          1           0       -2.197284   -2.379229   -3.160421
 ---------------------------------------------------------------------
                    Distance matrix (angstroms):
                    1          2          3          4          5
     1  C    0.000000
     2  C    1.405558   0.000000
     3  C    1.411384   2.443065   0.000000
     4  C    2.374755   2.740319   1.377513   0.000000
     5  C    2.775255   2.385456   2.429002   1.382649   0.000000
     6  C    2.451647   1.407291   2.848502   2.404729   1.383782
     7  C    5.053839   5.051020   4.179724   3.104515   3.055831
     8  C    2.594026   3.867678   1.522420   2.497479   3.794431
     9  C    5.520746   5.852985   4.471187   3.708913   4.135060
    10  C    4.627598   5.291791   3.469871   3.111860   3.985146
    11  C    4.526316   4.951691   3.348412   2.488097   3.225296
    12  C    4.434695   5.173412   3.294086   3.056432   4.084458
    13  C    4.556153   4.542653   3.597355   2.277100   2.239056
    14  C    4.319646   5.076068   2.944090   2.486750   3.620125
    15  C    3.935796   5.027943   2.595596   2.849279   4.217311
    16  C    3.805941   4.224452   2.564777   1.496729   2.364882
    17  C    5.271612   6.440632   4.212742   4.665341   5.964456
    18  N    4.662085   5.683040   3.384324   3.479115   4.767152
    19  O    5.566885   5.302566   4.941404   3.892698   3.459105
    20  O    4.144816   3.707957   3.601493   2.295305   1.384441
    21  O    3.689089   2.402704   4.203284   3.651732   2.391810
    22  H    1.086280   2.156775   2.173053   3.369921   3.860829
    23  H    2.152617   1.086309   3.419398   3.826496   3.375031
    24  H    2.872231   4.150208   2.117134   3.132153   4.309500
    25  H    2.862084   4.216696   2.156017   3.276446   4.511120
    26  H    6.379041   6.740176   5.217583   4.372963   4.838986
    27  H    6.039837   6.319600   5.138831   4.504271   4.812916
    28  H    5.393876   6.196275   4.241809   4.095094   5.055388
    29  H    3.902895   4.565842   2.966094   2.872921   3.671202
    30  H    5.576120   5.994898   4.338105   3.432028   4.095262
    31  H    4.637112   4.790534   3.704190   2.733183   3.037697
    32  H    3.729022   4.478201   2.833888   2.887515   3.847367
    33  H    5.424940   6.115272   4.356394   4.093495   5.007259
    34  H    5.553357   5.509060   4.552007   3.223936   3.145419
    35  H    5.380860   6.107515   3.987518   3.429886   4.461563
    36  H    4.730183   5.907313   3.485951   3.864013   5.216311
    37  H    4.682711   5.898692   3.851241   4.560918   5.817514
    38  H    6.072431   7.149178   5.041096   5.347341   6.562442
    39  H    5.837698   7.090459   4.759732   5.284817   6.641405
    40  H    5.562178   6.519938   4.220806   4.098701   5.327204
    41  H    3.821296   2.422387   4.619226   4.316619   3.186695
                    6          7          8          9         10
     6  C    0.000000
     7  C    4.174378   0.000000
     8  C    4.364054   4.778807   0.000000
     9  C    5.255509   1.518093   4.587761   0.000000
    10  C    5.036392   2.503306   3.229534   1.530983   0.000000
    11  C    4.432776   3.918026   3.635545   4.317287   3.907409
    12  C    5.052274   5.150199   3.148965   5.301748   4.485558
    13  C    3.579860   1.541824   4.338660   2.612602   3.016633
    14  C    4.812592   2.973041   2.619227   2.521996   1.544161
    15  C    5.164928   4.393889   1.559890   3.934693   2.597424
    16  C    3.678866   2.586503   3.003137   2.977206   2.569174
    17  C    6.763191   6.711820   3.138740   6.353580   5.107766
    18  N    5.751473   5.267322   2.566850   4.988365   3.884389
    19  O    4.308062   1.208382   5.716793   2.376820   3.501658
    20  O    2.478548   2.425165   4.762608   3.784256   4.112995
    21  O    1.355106   4.792940   5.717056   6.063781   6.103465
    22  H    3.426285   6.000668   2.837219   6.313338   5.270676
    23  H    2.162659   6.004285   4.741308   6.826243   6.278482
    24  H    4.757351   4.944619   1.096511   4.563639   3.132404
    25  H    4.915600   5.823785   1.094874   5.661488   4.286524
    26  H    6.070004   2.138400   5.203647   1.099569   2.187785
    27  H    5.770871   2.136069   5.249158   1.091533   2.157946
    28  H    6.064722   3.450984   3.647397   2.158492   1.096386
    29  H    4.482858   2.756195   2.895833   2.159647   1.094874
    30  H    5.379899   4.101287   4.441083   4.350788   4.142848
    31  H    4.118305   4.266123   4.321686   4.977894   4.742030
    32  H    4.557023   5.519842   2.898163   5.804162   4.901741
    33  H    5.958001   6.011737   4.152019   6.156753   5.419480
    34  H    4.462403   2.141142   5.184083   3.078348   3.707454
    35  H    5.740473   3.367139   3.546803   2.732616   2.127513
    36  H    6.131212   5.016476   2.184207   4.247172   2.818956
    37  H    6.413253   6.986423   2.843952   6.747694   5.434257
    38  H    7.388916   7.360917   4.132473   7.075028   5.947775
    39  H    7.461785   7.039974   3.448537   6.451840   5.129028
    40  H    6.442998   5.326478   3.410365   4.901977   3.949993
    41  H    1.911930   5.636357   6.125168   6.840119   6.783727
                   11         12         13         14         15
    11  C    0.000000
    12  C    1.537180   0.000000
    13  C    2.570292   3.944072   0.000000
    14  C    2.518543   2.982135   2.647904   0.000000
    15  C    2.969616   2.580539   3.931447   1.558608   0.000000
    16  C    1.548817   2.578316   1.544733   1.541620   2.496070
    17  C    3.863654   2.508384   5.890225   3.853219   2.555960
    18  N    2.513892   1.518792   4.421184   2.475175   1.542131
    19  O    4.950104   6.226608   2.407782   4.150811   5.513145
    20  O    3.204631   4.467223   1.466654   3.789774   4.785794
    21  O    5.430121   6.194510   4.293426   5.976094   6.469587
    22  H    5.375020   5.037008   5.581991   5.016037   4.356814
    23  H    5.994194   6.144573   5.566514   6.136831   6.012953
    24  H    4.567703   4.202950   4.836769   3.041732   2.153794
    25  H    4.128073   3.253299   5.246900   3.540225   2.213182
    26  H    4.372391   5.407467   2.940169   2.782021   4.258208
    27  H    5.384199   6.328692   3.519242   3.470435   4.743529
    28  H    4.675001   5.054230   4.046386   2.171779   2.857746
    29  H    4.339730   4.812294   3.325541   2.194952   2.834330
    30  H    1.099991   2.159089   2.864397   2.784563   3.450970
    31  H    1.093688   2.148711   2.752028   3.483047   3.933682
    32  H    2.196298   1.091415   4.308407   3.532697   2.905197
    33  H    2.172047   1.092366   4.735641   3.880903   3.483765
    34  H    2.674351   4.188029   1.096581   3.201487   4.543998
    35  H    2.672050   3.187200   3.038250   1.102465   2.176490
    36  H    3.939253   3.463693   4.787947   2.187579   1.093357
    37  H    4.213548   2.800019   6.149157   4.272434   2.847433
    38  H    4.102963   2.682855   6.399311   4.580484   3.478649
    39  H    4.631296   3.438927   6.419225   4.078953   2.738477
    40  H    2.696251   2.045946   4.544602   2.553783   2.059833
    41  H    6.214141   6.833864   5.203313   6.699496   7.049857
                   16         17         18         19         20
    16  C    0.000000
    17  C    4.361596   0.000000
    18  N    2.916232   1.505597   0.000000
    19  O    3.660276   7.857586   6.427878   0.000000
    20  O    2.430593   6.586791   5.226018   2.715071   0.000000
    21  O    4.749554   8.056011   7.011898   4.614668   2.932002
    22  H    4.721044   5.417539   5.086377   6.516464   5.229116
    23  H    5.310032   7.300116   6.659963   6.127259   4.621207
    24  H    3.682496   3.904896   3.444473   5.789539   5.285472
    25  H    3.838059   2.727250   2.688427   6.759795   5.564174
    26  H    3.314581   6.461945   5.078021   2.988843   4.290916
    27  H    3.986655   7.228007   5.931539   2.498963   4.499701
    28  H    3.506882   5.200346   4.158056   4.382048   5.201980
    29  H    2.892740   5.376666   4.274699   3.534155   4.082365
    30  H    2.170123   4.209011   2.862835   5.161353   3.770411
    31  H    2.195247   4.647104   3.443170   5.124706   2.918492
    32  H    2.967603   2.722596   2.125203   6.504060   4.515276
    33  H    3.505375   2.692387   2.117351   7.089288   5.258045
    34  H    2.201742   6.261711   4.770968   2.879221   2.093833
    35  H    2.164013   3.978986   2.610123   4.568744   4.369191
    36  H    3.457314   2.678889   2.109485   6.128811   5.751966
    37  H    4.611187   1.088140   2.132956   8.065519   6.637626
    38  H    4.925160   1.090253   2.122295   8.518474   7.080077
    39  H    4.915593   1.090530   2.124278   8.199449   7.247896
    40  H    3.186159   2.019827   1.025574   6.526142   5.554330
    41  H    5.544940   8.552494   7.619477   5.421530   3.878705
                   21         22         23         24         25
    21  O    0.000000
    22  H    4.555907   0.000000
    23  H    2.650323   2.463620   0.000000
    24  H    6.072544   2.908441   4.921667   0.000000
    25  H    6.259184   2.795826   4.959818   1.752337   0.000000
    26  H    6.852963   7.187187   7.750927   5.286229   6.224775
    27  H    6.482687   6.763450   7.207992   5.019231   6.336415
    28  H    7.157504   5.889667   7.148246   3.363999   4.609534
    29  H    5.567209   4.478416   5.476251   2.566801   3.972682
    30  H    6.292082   6.418570   7.047806   5.305621   4.958626
    31  H    4.936347   5.546487   5.766462   5.281654   4.734633
    32  H    5.718562   4.250605   5.364062   3.994319   2.782766
    33  H    7.020750   5.980788   7.046331   5.200606   4.105235
    34  H    5.024010   6.582207   6.519563   5.754263   6.036839
    35  H    6.836665   6.072985   7.180445   3.984624   4.343854
    36  H    7.439769   4.987940   6.845308   2.348077   2.662156
    37  H    7.712711   4.673405   6.657624   3.613376   2.101223
    38  H    8.625107   6.257188   8.001306   4.965065   3.692491
    39  H    8.785395   5.895307   7.943943   3.953282   3.100525
    40  H    7.653985   6.041359   7.534072   4.162876   3.644928
    41  H    0.965955   4.512515   2.247259   6.411054   6.569996
                   26         27         28         29         30
    26  H    0.000000
    27  H    1.772990   0.000000
    28  H    2.521222   2.477949   0.000000
    29  H    3.083931   2.472410   1.758621   0.000000
    30  H    4.126512   5.441965   4.786199   4.803243   0.000000
    31  H    5.078864   6.014398   5.608796   5.057304   1.752944
    32  H    6.084138   6.772625   5.535151   4.993399   3.073874
    33  H    6.118309   7.212644   5.914743   5.839723   2.398774
    34  H    3.022428   4.004678   4.621120   4.226700   2.577516
    35  H    2.536844   3.713946   2.423409   3.058153   2.483886
    36  H    4.490343   4.920071   2.642196   3.116204   4.241863
    37  H    7.013158   7.578976   5.612350   5.490181   4.786122
    38  H    7.067351   8.009928   6.065231   6.307644   4.297785
    39  H    6.524978   7.235983   4.990107   5.431522   4.863253
    40  H    4.771702   5.865339   4.091173   4.572050   2.629460
    41  H    7.685615   7.194934   7.801945   6.140498   7.130162
                   31         32         33         34         35
    31  H    0.000000
    32  H    2.453573   0.000000
    33  H    2.554973   1.770935   0.000000
    34  H    2.754656   4.725940   4.773532   0.000000
    35  H    3.702641   3.997910   3.845351   3.229446   0.000000
    36  H    4.955051   3.840193   4.214776   5.355127   2.513950
    37  H    4.853179   2.568528   3.118776   6.652565   4.639415
    38  H    4.774562   2.988189   2.405844   6.620138   4.534216
    39  H    5.522565   3.734309   3.653577   6.806996   4.115649
    40  H    3.704504   2.934951   2.319282   4.699393   2.238799
    41  H    5.725285   6.243315   7.663224   5.971905   7.616664
                   36         37         38         39         40
    36  H    0.000000
    37  H    3.088823   0.000000
    38  H    3.646826   1.782736   0.000000
    39  H    2.404391   1.781969   1.788924   0.000000
    40  H    2.335280   2.929964   2.337876   2.340290   0.000000
    41  H    7.992100   8.102743   9.144937   9.277624   8.333313
                   41
    41  H    0.000000
 Stoichiometry    C17H20NO3(1+)
 Framework group  C1[X(C17H20NO3)]
 Deg. of freedom   117
 Full point group                 C1      NOp   1
 Largest Abelian subgroup         C1      NOp   1
 Largest concise Abelian subgroup C1      NOp   1
                         Standard orientation:                         
 ---------------------------------------------------------------------
 Center     Atomic      Atomic             Coordinates (Angstroms)
 Number     Number       Type             X           Y           Z
 ---------------------------------------------------------------------
      1          6           0        0.560173   -2.497287   -1.286130
      2          6           0        1.864800   -2.676426   -0.794753
      3          6           0       -0.214306   -1.395389   -0.864220
      4          6           0        0.365372   -0.544215    0.050667
      5          6           0        1.671636   -0.672763    0.485255
      6          6           0        2.444175   -1.752263    0.094468
      7          6           0        1.551148    2.319732   -0.121834
      8          6           0       -1.582521   -1.042336   -1.430883
      9          6           0        0.511618    3.014890   -0.982497
     10          6           0       -0.503721    2.000513   -1.515446
     11          6           0       -1.062676    0.243625    1.929660
     12          6           0       -2.250437   -0.683521    1.625442
     13          6           0        1.035787    1.408889    1.010415
     14          6           0       -1.238302    1.315182   -0.342780
     15          6           0       -2.247679    0.216277   -0.793140
     16          6           0       -0.271910    0.662455    0.665499
     17          6           0       -4.276162   -0.996903    0.179682
     18          7           0       -3.066324   -0.146500    0.462400
     19          8           0        2.730351    2.529796   -0.281651
     20          8           0        2.068605    0.399411    1.265982
     21          8           0        3.721195   -1.905146    0.521267
     22          1           0        0.161319   -3.204838   -2.007442
     23          1           0        2.442485   -3.530780   -1.135967
     24          1           0       -1.436930   -0.824436   -2.495618
     25          1           0       -2.240551   -1.916215   -1.385259
     26          1           0        0.023862    3.794144   -0.379247
     27          1           0        1.016532    3.501675   -1.818886
     28          1           0       -1.232217    2.515754   -2.152535
     29          1           0        0.007781    1.268702   -2.149138
     30          1           0       -1.438678    1.148449    2.429555
     31          1           0       -0.413427   -0.255485    2.654586
     32          1           0       -1.929949   -1.695391    1.371287
     33          1           0       -2.916585   -0.740026    2.489338
     34          1           0        0.925040    2.032635    1.905493
     35          1           0       -1.797103    2.115412    0.169864
     36          1           0       -2.973043    0.640943   -1.492379
     37          1           0       -3.959428   -1.974507   -0.178114
     38          1           0       -4.847306   -1.107469    1.101756
     39          1           0       -4.881290   -0.503964   -0.581953
     40          1           0       -3.454569    0.744285    0.790379
     41          1           0        4.105151   -2.698636    0.126274
 ---------------------------------------------------------------------
 Rotational constants (GHZ):           0.4668710           0.3207510           0.2447111
 Standard basis: 6-31G(d,p) (6D, 7F)
 There are   415 symmetry adapted cartesian basis functions of A   symmetry.
 There are   415 symmetry adapted basis functions of A   symmetry.
   415 basis functions,   728 primitive gaussians,   415 cartesian basis functions
    76 alpha electrons       76 beta electrons
       nuclear repulsion energy      1843.1508499023 Hartrees.
 NAtoms=   41 NActive=   41 NUniq=   41 SFac= 1.00D+00 NAtFMM=   60 NAOKFM=F Big=F
 Integral buffers will be    131072 words long.
 Raffenetti 1 integral format.
 Two-electron integral symmetry is turned on.
 ------------------------------------------------------------------------------
 Polarizable Continuum Model (PCM)
 =================================
 Model                : PCM.
 Atomic radii         : UFF (Universal Force Field).
 Polarization charges : Total charges.
 Charge compensation  : None.
 Solution method      : On-the-fly selection.
 Cavity type          : Scaled VdW (van der Waals Surface) (Alpha=1.100).
 Cavity algorithm     : GePol (No added spheres)
                        Default sphere list used, NSphG=   41.
                        Lebedev-Laikov grids with approx.  5.0 points / Ang**2.
                        Smoothing algorithm: York/Karplus (Gamma=1.0000).
                        Polarization charges: spherical gaussians, with
                                              point-specific exponents (IZeta= 3).
                        Self-potential: point-specific (ISelfS= 7).
                        Self-field    : sphere-specific E.n sum rule (ISelfD= 2).
 Solvent              : Water, Eps=  78.355300 Eps(inf)=   1.777849
 ------------------------------------------------------------------------------
 One-electron integrals computed using PRISM.
 NBasis=   415 RedAO= T EigKep=  3.00D-04  NBF=   415
 NBsUse=   415 1.00D-06 EigRej= -1.00D+00 NBFU=   415
 Initial guess from the checkpoint file:  "G4.chk"
 B after Tr=     0.000000   -0.000000    0.000000
         Rot=    1.000000   -0.000000    0.000000    0.000000 Ang=   0.00 deg.
 Requested convergence on RMS density matrix=1.00D-08 within 128 cycles.
 Requested convergence on MAX density matrix=1.00D-06.
 Requested convergence on             energy=1.00D-06.
 No special actions if energy rises.
 Inv3:  Mode=1 IEnd=    19248267.
 Iteration    1 A*A^-1 deviation from unit magnitude is 6.88D-15 for   2518.
 Iteration    1 A*A^-1 deviation from orthogonality  is 3.08D-15 for   2498     72.
 Iteration    1 A^-1*A deviation from unit magnitude is 6.66D-15 for   2518.
 Iteration    1 A^-1*A deviation from orthogonality  is 2.06D-15 for   2502   2370.
 Error on total polarization charges =  0.00775
 SCF Done:  E(RHF) =  -934.349446694     A.U. after   14 cycles
            NFock= 14  Conv=0.76D-08     -V/T= 2.0022

 **********************************************************************

            Population analysis using the SCF density.

 **********************************************************************

 Orbital symmetries:
       Occupied  (A) (A) (A) (A) (A) (A) (A) (A) (A) (A) (A) (A)
                 (A) (A) (A) (A) (A) (A) (A) (A) (A) (A) (A) (A)
                 (A) (A) (A) (A) (A) (A) (A) (A) (A) (A) (A) (A)
                 (A) (A) (A) (A) (A) (A) (A) (A) (A) (A) (A) (A)
                 (A) (A) (A) (A) (A) (A) (A) (A) (A) (A) (A) (A)
                 (A) (A) (A) (A) (A) (A) (A) (A) (A) (A) (A) (A)
                 (A) (A) (A) (A)
       Virtual   (A) (A) (A) (A) (A) (A) (A) (A) (A) (A) (A) (A)
                 (A) (A) (A) (A) (A) (A) (A) (A) (A) (A) (A) (A)
                 (A) (A) (A) (A) (A) (A) (A) (A) (A) (A) (A) (A)
                 (A) (A) (A) (A) (A) (A) (A) (A) (A) (A) (A) (A)
                 (A) (A) (A) (A) (A) (A) (A) (A) (A) (A) (A) (A)
                 (A) (A) (A) (A) (A) (A) (A) (A) (A) (A) (A) (A)
                 (A) (A) (A) (A) (A) (A) (A) (A) (A) (A) (A) (A)
                 (A) (A) (A) (A) (A) (A) (A) (A) (A) (A) (A) (A)
                 (A) (A) (A) (A) (A) (A) (A) (A) (A) (A) (A) (A)
                 (A) (A) (A) (A) (A) (A) (A) (A) (A) (A) (A) (A)
                 (A) (A) (A) (A) (A) (A) (A) (A) (A) (A) (A) (A)
                 (A) (A) (A) (A) (A) (A) (A) (A) (A) (A) (A) (A)
                 (A) (A) (A) (A) (A) (A) (A) (A) (A) (A) (A) (A)
                 (A) (A) (A) (A) (A) (A) (A) (A) (A) (A) (A) (A)
                 (A) (A) (A) (A) (A) (A) (A) (A) (A) (A) (A) (A)
                 (A) (A) (A) (A) (A) (A) (A) (A) (A) (A) (A) (A)
                 (A) (A) (A) (A) (A) (A) (A) (A) (A) (A) (A) (A)
                 (A) (A) (A) (A) (A) (A) (A) (A) (A) (A) (A) (A)
                 (A) (A) (A) (A) (A) (A) (A) (A) (A) (A) (A) (A)
                 (A) (A) (A) (A) (A) (A) (A) (A) (A) (A) (A) (A)
                 (A) (A) (A) (A) (A) (A) (A) (A) (A) (A) (A) (A)
                 (A) (A) (A) (A) (A) (A) (A) (A) (A) (A) (A) (A)
                 (A) (A) (A) (A) (A) (A) (A) (A) (A) (A) (A) (A)
                 (A) (A) (A) (A) (A) (A) (A) (A) (A) (A) (A) (A)
                 (A) (A) (A) (A) (A) (A) (A) (A) (A) (A) (A) (A)
                 (A) (A) (A) (A) (A) (A) (A) (A) (A) (A) (A) (A)
                 (A) (A) (A) (A) (A) (A) (A) (A) (A) (A) (A) (A)
                 (A) (A) (A) (A) (A) (A) (A) (A) (A) (A) (A) (A)
                 (A) (A) (A)
 The electronic state is 1-A.
 Alpha  occ. eigenvalues --  -20.61081 -20.60246 -20.57368 -15.71344 -11.34960
 Alpha  occ. eigenvalues --  -11.32701 -11.32198 -11.31519 -11.31020 -11.30356
 Alpha  occ. eigenvalues --  -11.29990 -11.27860 -11.27479 -11.26532 -11.26075
 Alpha  occ. eigenvalues --  -11.25823 -11.25132 -11.25056 -11.25016 -11.24770
 Alpha  occ. eigenvalues --  -11.24636  -1.43340  -1.41219  -1.39853  -1.34220
 Alpha  occ. eigenvalues --   -1.19212  -1.14640  -1.10038  -1.07780  -1.04171
 Alpha  occ. eigenvalues --   -1.03544  -1.01415  -0.97396  -0.96578  -0.90960
 Alpha  occ. eigenvalues --   -0.87253  -0.86582  -0.85502  -0.83173  -0.79583
 Alpha  occ. eigenvalues --   -0.76153  -0.75342  -0.70955  -0.70177  -0.69595
 Alpha  occ. eigenvalues --   -0.69072  -0.67702  -0.67537  -0.65805  -0.64821
 Alpha  occ. eigenvalues --   -0.63634  -0.62909  -0.61535  -0.60972  -0.60459
 Alpha  occ. eigenvalues --   -0.59620  -0.59436  -0.58181  -0.57725  -0.56615
 Alpha  occ. eigenvalues --   -0.56076  -0.55737  -0.55176  -0.53914  -0.53469
 Alpha  occ. eigenvalues --   -0.52930  -0.51958  -0.50829  -0.50201  -0.48467
 Alpha  occ. eigenvalues --   -0.47364  -0.46877  -0.46320  -0.41400  -0.33556
 Alpha  occ. eigenvalues --   -0.31218
 Alpha virt. eigenvalues --    0.11743   0.13039   0.15030   0.17550   0.21532
 Alpha virt. eigenvalues --    0.21780   0.22949   0.23571   0.24897   0.25236
 Alpha virt. eigenvalues --    0.25780   0.26413   0.26883   0.27847   0.28103
 Alpha virt. eigenvalues --    0.28600   0.29611   0.30052   0.30402   0.31070
 Alpha virt. eigenvalues --    0.31570   0.32010   0.32458   0.34242   0.34696
 Alpha virt. eigenvalues --    0.35242   0.35567   0.36439   0.37275   0.38641
 Alpha virt. eigenvalues --    0.38974   0.39922   0.41224   0.41865   0.43286
 Alpha virt. eigenvalues --    0.44170   0.44560   0.45228   0.45986   0.49165
 Alpha virt. eigenvalues --    0.50102   0.51598   0.53733   0.55317   0.55863
 Alpha virt. eigenvalues --    0.56744   0.60079   0.64984   0.66344   0.67701
 Alpha virt. eigenvalues --    0.68716   0.69541   0.70736   0.71100   0.72232
 Alpha virt. eigenvalues --    0.74465   0.75831   0.76036   0.76250   0.77922
 Alpha virt. eigenvalues --    0.79409   0.80310   0.80496   0.81209   0.81786
 Alpha virt. eigenvalues --    0.83864   0.84496   0.85399   0.85654   0.86932
 Alpha virt. eigenvalues --    0.87585   0.88231   0.90196   0.91683   0.91816
 Alpha virt. eigenvalues --    0.93361   0.93671   0.93799   0.94922   0.96436
 Alpha virt. eigenvalues --    0.96844   0.97908   0.98988   0.99870   1.00362
 Alpha virt. eigenvalues --    1.00924   1.01664   1.03546   1.04296   1.04927
 Alpha virt. eigenvalues --    1.05681   1.06856   1.07208   1.07884   1.08746
 Alpha virt. eigenvalues --    1.09174   1.09925   1.09982   1.10263   1.10770
 Alpha virt. eigenvalues --    1.11684   1.11852   1.12301   1.12871   1.14039
 Alpha virt. eigenvalues --    1.15081   1.15701   1.16340   1.17487   1.18098
 Alpha virt. eigenvalues --    1.18408   1.18871   1.19343   1.20242   1.22382
 Alpha virt. eigenvalues --    1.23149   1.24751   1.25409   1.25969   1.27795
 Alpha virt. eigenvalues --    1.29930   1.31051   1.33170   1.33573   1.35412
 Alpha virt. eigenvalues --    1.35699   1.37636   1.39023   1.39317   1.42550
 Alpha virt. eigenvalues --    1.43418   1.45274   1.45973   1.48336   1.49371
 Alpha virt. eigenvalues --    1.50239   1.51744   1.55030   1.56680   1.57311
 Alpha virt. eigenvalues --    1.59361   1.61555   1.62577   1.64019   1.64635
 Alpha virt. eigenvalues --    1.65482   1.68789   1.68985   1.70666   1.72668
 Alpha virt. eigenvalues --    1.75037   1.78448   1.80570   1.80785   1.82166
 Alpha virt. eigenvalues --    1.84412   1.86462   1.87932   1.91358   1.91738
 Alpha virt. eigenvalues --    1.93209   1.94908   1.95574   1.96268   1.97773
 Alpha virt. eigenvalues --    1.99292   2.00844   2.02421   2.03075   2.04389
 Alpha virt. eigenvalues --    2.05325   2.06641   2.06878   2.07837   2.08670
 Alpha virt. eigenvalues --    2.09058   2.09863   2.10687   2.13743   2.14214
 Alpha virt. eigenvalues --    2.14765   2.15048   2.16038   2.17647   2.18240
 Alpha virt. eigenvalues --    2.19109   2.19457   2.19734   2.20926   2.21572
 Alpha virt. eigenvalues --    2.22592   2.23535   2.23883   2.26084   2.26621
 Alpha virt. eigenvalues --    2.27123   2.28077   2.30403   2.30854   2.31395
 Alpha virt. eigenvalues --    2.32842   2.33165   2.34578   2.35771   2.36617
 Alpha virt. eigenvalues --    2.36847   2.37871   2.39428   2.40482   2.42040
 Alpha virt. eigenvalues --    2.43691   2.45093   2.45738   2.48434   2.49049
 Alpha virt. eigenvalues --    2.50107   2.51247   2.51832   2.53258   2.54179
 Alpha virt. eigenvalues --    2.55819   2.57398   2.58266   2.58549   2.60523
 Alpha virt. eigenvalues --    2.61508   2.63366   2.63981   2.64834   2.65318
 Alpha virt. eigenvalues --    2.67485   2.68199   2.69457   2.69975   2.70386
 Alpha virt. eigenvalues --    2.71591   2.72624   2.73239   2.74620   2.76334
 Alpha virt. eigenvalues --    2.77314   2.78410   2.80019   2.80457   2.81027
 Alpha virt. eigenvalues --    2.83684   2.84070   2.84734   2.84969   2.87489
 Alpha virt. eigenvalues --    2.88202   2.90044   2.90831   2.92068   2.93685
 Alpha virt. eigenvalues --    2.94484   2.94689   2.95136   2.96183   2.97468
 Alpha virt. eigenvalues --    2.97758   3.00314   3.00957   3.01396   3.02946
 Alpha virt. eigenvalues --    3.04060   3.05037   3.06631   3.06988   3.07593
 Alpha virt. eigenvalues --    3.09281   3.09929   3.11265   3.13244   3.14045
 Alpha virt. eigenvalues --    3.14784   3.15015   3.17244   3.19405   3.20603
 Alpha virt. eigenvalues --    3.21790   3.23162   3.23865   3.24623   3.25627
 Alpha virt. eigenvalues --    3.26882   3.27699   3.29716   3.30766   3.33391
 Alpha virt. eigenvalues --    3.34985   3.38478   3.39533   3.43177   3.45950
 Alpha virt. eigenvalues --    3.48452   3.54410   3.59928   3.62003   3.63682
 Alpha virt. eigenvalues --    3.64857   3.65925   3.66789   3.68428   3.68713
 Alpha virt. eigenvalues --    3.73891   3.74849   3.77316   3.78038   3.79084
 Alpha virt. eigenvalues --    3.82122   3.82931   3.84047   3.84847   3.85739
 Alpha virt. eigenvalues --    3.89055   3.90574   4.11507   4.36024   4.48370
 Alpha virt. eigenvalues --    4.54310   4.55043   4.63019   4.65892   4.71739
 Alpha virt. eigenvalues --    4.79302   4.83478   4.86485   4.90223   4.93480
 Alpha virt. eigenvalues --    4.97654   5.00726   5.13048   5.14426   5.17429
 Alpha virt. eigenvalues --    5.22347   5.24841   5.32035   5.48605
          Condensed to atoms (all electrons):
               1          2          3          4          5          6
     1  C    4.867890   0.519681   0.551639  -0.037228  -0.031656  -0.039739
     2  C    0.519681   4.989241  -0.047956  -0.040859  -0.049238   0.528594
     3  C    0.551639  -0.047956   4.918376   0.540029  -0.029337  -0.030422
     4  C   -0.037228  -0.040859   0.540029   5.189725   0.541875  -0.047981
     5  C   -0.031656  -0.049238  -0.029337   0.541875   4.550369   0.562838
     6  C   -0.039739   0.528594  -0.030422  -0.047981   0.562838   4.536822
     7  C   -0.000001  -0.000037  -0.000329  -0.005055   0.002738   0.000143
     8  C   -0.036897   0.002313   0.290105  -0.030569   0.003345   0.000241
     9  C    0.000014  -0.000000   0.000064  -0.002432   0.000163   0.000006
    10  C   -0.000192   0.000015  -0.003018  -0.002116   0.000151  -0.000011
    11  C    0.000058  -0.000004  -0.001732  -0.084118  -0.005086  -0.000051
    12  C   -0.000200   0.000007  -0.003096  -0.005940   0.000375   0.000010
    13  C   -0.000148  -0.000219   0.003786  -0.070195  -0.072013   0.001756
    14  C    0.000303  -0.000037   0.002063  -0.068948   0.002001   0.000008
    15  C    0.001813  -0.000055  -0.046055  -0.011527   0.000174  -0.000021
    16  C    0.003822   0.000180  -0.032851   0.246079  -0.064368   0.003555
    17  C   -0.000005  -0.000000   0.000204  -0.000059   0.000000  -0.000000
    18  N    0.000032  -0.000001   0.006196  -0.001037  -0.000088   0.000001
    19  O    0.000001  -0.000002  -0.000017  -0.000714   0.003617   0.000118
    20  O   -0.000213   0.003252   0.005622  -0.068711   0.214852  -0.039344
    21  O    0.003663  -0.060874   0.000056   0.002437  -0.055471   0.250448
    22  H    0.390108  -0.020806  -0.028204   0.002046   0.000554   0.001008
    23  H   -0.017754   0.389657   0.001444   0.000625   0.001412  -0.030048
    24  H   -0.003829   0.000027  -0.041709  -0.000781  -0.000117   0.000038
    25  H   -0.003531   0.000057  -0.042547   0.001621  -0.000069  -0.000006
    26  H   -0.000000   0.000000  -0.000002   0.000178  -0.000017  -0.000000
    27  H   -0.000000   0.000000  -0.000004  -0.000011  -0.000010  -0.000000
    28  H    0.000002  -0.000000   0.000084  -0.000051   0.000011   0.000000
    29  H   -0.000040   0.000003   0.000156   0.005032  -0.000043  -0.000059
    30  H   -0.000001   0.000000  -0.000103   0.006927   0.000011  -0.000000
    31  H    0.000022  -0.000018   0.000258  -0.005287   0.001747  -0.000014
    32  H    0.000185  -0.000015  -0.000257   0.004515   0.000212  -0.000050
    33  H    0.000001  -0.000000   0.000099   0.000110  -0.000011  -0.000001
    34  H    0.000000   0.000005  -0.000032   0.006869   0.003308  -0.000045
    35  H   -0.000003   0.000001  -0.000707   0.007335  -0.000003  -0.000001
    36  H   -0.000001   0.000000   0.003354  -0.000519   0.000002   0.000000
    37  H   -0.000010   0.000000  -0.000116   0.000035   0.000001  -0.000000
    38  H   -0.000000   0.000000  -0.000008  -0.000001  -0.000000   0.000000
    39  H    0.000000   0.000000   0.000005  -0.000002  -0.000000   0.000000
    40  H   -0.000000   0.000000  -0.000420   0.000418   0.000007  -0.000000
    41  H    0.000472  -0.002298  -0.000006  -0.000128   0.005305  -0.032508
               7          8          9         10         11         12
     1  C   -0.000001  -0.036897   0.000014  -0.000192   0.000058  -0.000200
     2  C   -0.000037   0.002313  -0.000000   0.000015  -0.000004   0.000007
     3  C   -0.000329   0.290105   0.000064  -0.003018  -0.001732  -0.003096
     4  C   -0.005055  -0.030569  -0.002432  -0.002116  -0.084118  -0.005940
     5  C    0.002738   0.003345   0.000163   0.000151  -0.005086   0.000375
     6  C    0.000143   0.000241   0.000006  -0.000011  -0.000051   0.000010
     7  C    4.494263   0.000002   0.335099  -0.049652   0.003295  -0.000079
     8  C    0.000002   4.997406  -0.000211   0.001271   0.001505  -0.000895
     9  C    0.335099  -0.000211   5.152436   0.307507  -0.000810   0.000019
    10  C   -0.049652   0.001271   0.307507   5.019799   0.003825  -0.000169
    11  C    0.003295   0.001505  -0.000810   0.003825   5.015774   0.333112
    12  C   -0.000079  -0.000895   0.000019  -0.000169   0.333112   4.961098
    13  C    0.305521  -0.000500  -0.100491   0.005622  -0.038843   0.003855
    14  C   -0.003213  -0.049754  -0.061810   0.335266  -0.054232  -0.008153
    15  C   -0.000233   0.326814   0.004174  -0.043192  -0.005569  -0.026186
    16  C   -0.042682  -0.014925   0.012516  -0.060480   0.344353  -0.041486
    17  C   -0.000000  -0.002468   0.000001  -0.000045   0.003047  -0.041240
    18  N    0.000009  -0.062433  -0.000077   0.002399  -0.049203   0.153060
    19  O    0.559497   0.000000  -0.066651   0.001664  -0.000042   0.000000
    20  O   -0.046011  -0.000065   0.002467  -0.000081   0.001054  -0.000059
    21  O    0.000001   0.000000   0.000000  -0.000000   0.000001  -0.000000
    22  H    0.000000  -0.000547   0.000000  -0.000002   0.000002  -0.000002
    23  H   -0.000000  -0.000088  -0.000000   0.000000  -0.000000   0.000000
    24  H    0.000001   0.411896   0.000003   0.000970  -0.000099   0.000017
    25  H   -0.000000   0.415969   0.000001  -0.000011   0.000137  -0.000066
    26  H   -0.038075   0.000003   0.399314  -0.035776  -0.000048  -0.000000
    27  H   -0.035638   0.000004   0.407366  -0.035163   0.000011  -0.000000
    28  H    0.003823  -0.000077  -0.032399   0.415641  -0.000078  -0.000002
    29  H   -0.003043   0.000939  -0.041070   0.412118  -0.000044  -0.000001
    30  H   -0.000100   0.000021   0.000052  -0.000097   0.410230  -0.038479
    31  H    0.000177  -0.000001  -0.000010  -0.000076   0.414190  -0.033336
    32  H    0.000001   0.001275  -0.000000  -0.000007  -0.032944   0.413507
    33  H    0.000001  -0.000134  -0.000000   0.000007  -0.033685   0.420249
    34  H   -0.030911   0.000004   0.002764   0.000212  -0.004008   0.000038
    35  H   -0.000282   0.003430  -0.003008  -0.032012  -0.002904  -0.000004
    36  H    0.000003  -0.032586  -0.000052  -0.002121  -0.000286   0.002044
    37  H    0.000000   0.000526  -0.000000  -0.000000  -0.000063  -0.002677
    38  H    0.000000   0.000010  -0.000000   0.000001  -0.000014  -0.003090
    39  H    0.000000  -0.000121  -0.000000  -0.000004  -0.000111   0.003050
    40  H    0.000002   0.003904  -0.000011  -0.000002  -0.000454  -0.025686
    41  H    0.000000  -0.000000   0.000000  -0.000000  -0.000000   0.000000
              13         14         15         16         17         18
     1  C   -0.000148   0.000303   0.001813   0.003822  -0.000005   0.000032
     2  C   -0.000219  -0.000037  -0.000055   0.000180  -0.000000  -0.000001
     3  C    0.003786   0.002063  -0.046055  -0.032851   0.000204   0.006196
     4  C   -0.070195  -0.068948  -0.011527   0.246079  -0.000059  -0.001037
     5  C   -0.072013   0.002001   0.000174  -0.064368   0.000000  -0.000088
     6  C    0.001756   0.000008  -0.000021   0.003555  -0.000000   0.000001
     7  C    0.305521  -0.003213  -0.000233  -0.042682  -0.000000   0.000009
     8  C   -0.000500  -0.049754   0.326814  -0.014925  -0.002468  -0.062433
     9  C   -0.100491  -0.061810   0.004174   0.012516   0.000001  -0.000077
    10  C    0.005622   0.335266  -0.043192  -0.060480  -0.000045   0.002399
    11  C   -0.038843  -0.054232  -0.005569   0.344353   0.003047  -0.049203
    12  C    0.003855  -0.008153  -0.026186  -0.041486  -0.041240   0.153060
    13  C    4.978782  -0.033914   0.003797   0.334199   0.000005  -0.000141
    14  C   -0.033914   5.156252   0.340359   0.317576   0.003162  -0.064906
    15  C    0.003797   0.340359   5.059674  -0.047386  -0.037381   0.171451
    16  C    0.334199   0.317576  -0.047386   5.391674  -0.000214   0.004361
    17  C    0.000005   0.003162  -0.037381  -0.000214   4.877444   0.177408
    18  N   -0.000141  -0.064906   0.171451   0.004361   0.177408   7.155814
    19  O   -0.069602   0.000177  -0.000000   0.002818   0.000000   0.000000
    20  O    0.208085   0.001783  -0.000046  -0.044243  -0.000000  -0.000001
    21  O   -0.000023   0.000000  -0.000000  -0.000057   0.000000   0.000000
    22  H    0.000003   0.000006  -0.000019  -0.000109   0.000000   0.000002
    23  H    0.000002  -0.000000   0.000001   0.000006  -0.000000  -0.000000
    24  H    0.000005  -0.001699  -0.031895   0.000800   0.000025   0.002634
    25  H    0.000008   0.003244  -0.034111  -0.000211  -0.001514  -0.003109
    26  H    0.004447  -0.002929  -0.000120  -0.001281   0.000000  -0.000001
    27  H    0.003830   0.004388  -0.000054  -0.000371  -0.000000   0.000000
    28  H   -0.000559  -0.037009  -0.003090   0.004610  -0.000002  -0.000005
    29  H    0.001877  -0.037371  -0.004991  -0.006512  -0.000000  -0.000032
    30  H   -0.005137  -0.002053   0.000215  -0.045136  -0.000122  -0.001159
    31  H   -0.004140   0.003842  -0.000299  -0.031150  -0.000059   0.002909
    32  H   -0.000170   0.000877  -0.002617  -0.004295  -0.001983  -0.037979
    33  H   -0.000041  -0.000303   0.002351   0.003385  -0.002498  -0.033113
    34  H    0.412348   0.000366  -0.000111  -0.038859  -0.000000   0.000005
    35  H   -0.001510   0.431192  -0.040656  -0.055741  -0.000070  -0.003885
    36  H   -0.000043  -0.034020   0.432763   0.004030  -0.002309  -0.034267
    37  H   -0.000000  -0.000073  -0.003721  -0.000001   0.408073  -0.033267
    38  H   -0.000000  -0.000117   0.003008   0.000011   0.409446  -0.031175
    39  H   -0.000000  -0.000015  -0.002315   0.000009   0.408503  -0.032185
    40  H   -0.000080  -0.000893  -0.030055  -0.001564  -0.025675   0.353365
    41  H    0.000002  -0.000000   0.000000   0.000003  -0.000000  -0.000000
              19         20         21         22         23         24
     1  C    0.000001  -0.000213   0.003663   0.390108  -0.017754  -0.003829
     2  C   -0.000002   0.003252  -0.060874  -0.020806   0.389657   0.000027
     3  C   -0.000017   0.005622   0.000056  -0.028204   0.001444  -0.041709
     4  C   -0.000714  -0.068711   0.002437   0.002046   0.000625  -0.000781
     5  C    0.003617   0.214852  -0.055471   0.000554   0.001412  -0.000117
     6  C    0.000118  -0.039344   0.250448   0.001008  -0.030048   0.000038
     7  C    0.559497  -0.046011   0.000001   0.000000  -0.000000   0.000001
     8  C    0.000000  -0.000065   0.000000  -0.000547  -0.000088   0.411896
     9  C   -0.066651   0.002467   0.000000   0.000000  -0.000000   0.000003
    10  C    0.001664  -0.000081  -0.000000  -0.000002   0.000000   0.000970
    11  C   -0.000042   0.001054   0.000001   0.000002  -0.000000  -0.000099
    12  C    0.000000  -0.000059  -0.000000  -0.000002   0.000000   0.000017
    13  C   -0.069602   0.208085  -0.000023   0.000003   0.000002   0.000005
    14  C    0.000177   0.001783   0.000000   0.000006  -0.000000  -0.001699
    15  C   -0.000000  -0.000046  -0.000000  -0.000019   0.000001  -0.031895
    16  C    0.002818  -0.044243  -0.000057  -0.000109   0.000006   0.000800
    17  C    0.000000  -0.000000   0.000000   0.000000  -0.000000   0.000025
    18  N    0.000000  -0.000001   0.000000   0.000002  -0.000000   0.002634
    19  O    8.139628  -0.000561   0.000001   0.000000  -0.000000   0.000000
    20  O   -0.000561   8.486621   0.000301   0.000000  -0.000026   0.000001
    21  O    0.000001   0.000301   8.227304  -0.000033  -0.003244  -0.000000
    22  H    0.000000   0.000000  -0.000033   0.473442  -0.001223   0.000569
    23  H   -0.000000  -0.000026  -0.003244  -0.001223   0.466926   0.000000
    24  H    0.000000   0.000001  -0.000000   0.000569   0.000000   0.500705
    25  H   -0.000000   0.000000  -0.000000   0.000753   0.000001  -0.021023
    26  H    0.000547  -0.000014  -0.000000  -0.000000   0.000000  -0.000000
    27  H    0.003204  -0.000050  -0.000000  -0.000000  -0.000000   0.000000
    28  H   -0.000053   0.000002   0.000000   0.000000  -0.000000   0.000026
    29  H    0.000264  -0.000048   0.000000  -0.000004   0.000000  -0.001098
    30  H   -0.000000  -0.000013  -0.000000  -0.000000   0.000000   0.000002
    31  H   -0.000000   0.002333   0.000000   0.000000  -0.000000  -0.000000
    32  H   -0.000000   0.000007   0.000000  -0.000005   0.000000   0.000085
    33  H   -0.000000   0.000000   0.000000   0.000000  -0.000000   0.000002
    34  H   -0.001072  -0.021550  -0.000001  -0.000000  -0.000000  -0.000000
    35  H   -0.000009  -0.000024  -0.000000  -0.000000   0.000000  -0.000094
    36  H    0.000000   0.000000   0.000000  -0.000001  -0.000000  -0.004066
    37  H    0.000000   0.000000  -0.000000  -0.000002   0.000000  -0.000017
    38  H   -0.000000   0.000000  -0.000000   0.000000   0.000000   0.000001
    39  H   -0.000000   0.000000   0.000000  -0.000000  -0.000000  -0.000022
    40  H   -0.000000   0.000000  -0.000000  -0.000000   0.000000  -0.000051
    41  H    0.000000  -0.000070   0.321692  -0.000008   0.003026  -0.000000
              25         26         27         28         29         30
     1  C   -0.003531  -0.000000  -0.000000   0.000002  -0.000040  -0.000001
     2  C    0.000057   0.000000   0.000000  -0.000000   0.000003   0.000000
     3  C   -0.042547  -0.000002  -0.000004   0.000084   0.000156  -0.000103
     4  C    0.001621   0.000178  -0.000011  -0.000051   0.005032   0.006927
     5  C   -0.000069  -0.000017  -0.000010   0.000011  -0.000043   0.000011
     6  C   -0.000006  -0.000000  -0.000000   0.000000  -0.000059  -0.000000
     7  C   -0.000000  -0.038075  -0.035638   0.003823  -0.003043  -0.000100
     8  C    0.415969   0.000003   0.000004  -0.000077   0.000939   0.000021
     9  C    0.000001   0.399314   0.407366  -0.032399  -0.041070   0.000052
    10  C   -0.000011  -0.035776  -0.035163   0.415641   0.412118  -0.000097
    11  C    0.000137  -0.000048   0.000011  -0.000078  -0.000044   0.410230
    12  C   -0.000066  -0.000000  -0.000000  -0.000002  -0.000001  -0.038479
    13  C    0.000008   0.004447   0.003830  -0.000559   0.001877  -0.005137
    14  C    0.003244  -0.002929   0.004388  -0.037009  -0.037371  -0.002053
    15  C   -0.034111  -0.000120  -0.000054  -0.003090  -0.004991   0.000215
    16  C   -0.000211  -0.001281  -0.000371   0.004610  -0.006512  -0.045136
    17  C   -0.001514   0.000000  -0.000000  -0.000002  -0.000000  -0.000122
    18  N   -0.003109  -0.000001   0.000000  -0.000005  -0.000032  -0.001159
    19  O   -0.000000   0.000547   0.003204  -0.000053   0.000264  -0.000000
    20  O    0.000000  -0.000014  -0.000050   0.000002  -0.000048  -0.000013
    21  O   -0.000000  -0.000000  -0.000000   0.000000   0.000000  -0.000000
    22  H    0.000753  -0.000000  -0.000000   0.000000  -0.000004  -0.000000
    23  H    0.000001   0.000000  -0.000000  -0.000000   0.000000   0.000000
    24  H   -0.021023  -0.000000   0.000000   0.000026  -0.001098   0.000002
    25  H    0.511655   0.000000  -0.000000  -0.000007   0.000085  -0.000004
    26  H    0.000000   0.512781  -0.016145  -0.003335   0.003697   0.000006
    27  H   -0.000000  -0.016145   0.498869  -0.003259  -0.001881  -0.000000
    28  H   -0.000007  -0.003335  -0.003259   0.516613  -0.024097  -0.000002
    29  H    0.000085   0.003697  -0.001881  -0.024097   0.537813  -0.000002
    30  H   -0.000004   0.000006  -0.000000  -0.000002  -0.000002   0.522770
    31  H   -0.000002   0.000001   0.000000   0.000001   0.000002  -0.019589
    32  H   -0.000478   0.000000   0.000000   0.000000  -0.000000   0.003125
    33  H   -0.000034  -0.000000   0.000000  -0.000000  -0.000000  -0.003618
    34  H    0.000000  -0.000169  -0.000095   0.000000  -0.000000   0.001446
    35  H   -0.000029   0.002492  -0.000026  -0.003480   0.003704   0.001683
    36  H   -0.000821   0.000002  -0.000003   0.001653   0.000038  -0.000016
    37  H   -0.001301  -0.000000   0.000000   0.000000  -0.000000  -0.000002
    38  H    0.000087  -0.000000   0.000000  -0.000000  -0.000000   0.000003
    39  H   -0.000005   0.000000  -0.000000  -0.000001   0.000000   0.000003
    40  H   -0.000060  -0.000001   0.000000   0.000002   0.000003   0.001750
    41  H    0.000000   0.000000  -0.000000  -0.000000   0.000000   0.000000
              31         32         33         34         35         36
     1  C    0.000022   0.000185   0.000001   0.000000  -0.000003  -0.000001
     2  C   -0.000018  -0.000015  -0.000000   0.000005   0.000001   0.000000
     3  C    0.000258  -0.000257   0.000099  -0.000032  -0.000707   0.003354
     4  C   -0.005287   0.004515   0.000110   0.006869   0.007335  -0.000519
     5  C    0.001747   0.000212  -0.000011   0.003308  -0.000003   0.000002
     6  C   -0.000014  -0.000050  -0.000001  -0.000045  -0.000001   0.000000
     7  C    0.000177   0.000001   0.000001  -0.030911  -0.000282   0.000003
     8  C   -0.000001   0.001275  -0.000134   0.000004   0.003430  -0.032586
     9  C   -0.000010  -0.000000  -0.000000   0.002764  -0.003008  -0.000052
    10  C   -0.000076  -0.000007   0.000007   0.000212  -0.032012  -0.002121
    11  C    0.414190  -0.032944  -0.033685  -0.004008  -0.002904  -0.000286
    12  C   -0.033336   0.413507   0.420249   0.000038  -0.000004   0.002044
    13  C   -0.004140  -0.000170  -0.000041   0.412348  -0.001510  -0.000043
    14  C    0.003842   0.000877  -0.000303   0.000366   0.431192  -0.034020
    15  C   -0.000299  -0.002617   0.002351  -0.000111  -0.040656   0.432763
    16  C   -0.031150  -0.004295   0.003385  -0.038859  -0.055741   0.004030
    17  C   -0.000059  -0.001983  -0.002498  -0.000000  -0.000070  -0.002309
    18  N    0.002909  -0.037979  -0.033113   0.000005  -0.003885  -0.034267
    19  O   -0.000000  -0.000000  -0.000000  -0.001072  -0.000009   0.000000
    20  O    0.002333   0.000007   0.000000  -0.021550  -0.000024   0.000000
    21  O    0.000000   0.000000   0.000000  -0.000001  -0.000000   0.000000
    22  H    0.000000  -0.000005   0.000000  -0.000000  -0.000000  -0.000001
    23  H   -0.000000   0.000000  -0.000000  -0.000000   0.000000  -0.000000
    24  H   -0.000000   0.000085   0.000002  -0.000000  -0.000094  -0.004066
    25  H   -0.000002  -0.000478  -0.000034   0.000000  -0.000029  -0.000821
    26  H    0.000001   0.000000  -0.000000  -0.000169   0.002492   0.000002
    27  H    0.000000   0.000000   0.000000  -0.000095  -0.000026  -0.000003
    28  H    0.000001   0.000000  -0.000000   0.000000  -0.003480   0.001653
    29  H    0.000002  -0.000000  -0.000000  -0.000000   0.003704   0.000038
    30  H   -0.019589   0.003125  -0.003618   0.001446   0.001683  -0.000016
    31  H    0.491423  -0.002406  -0.001256  -0.000315   0.000053   0.000008
    32  H   -0.002406   0.474221  -0.019768   0.000001  -0.000007  -0.000054
    33  H   -0.001256  -0.019768   0.461010  -0.000005  -0.000072  -0.000060
    34  H   -0.000315   0.000001  -0.000005   0.463245   0.000452   0.000001
    35  H    0.000053  -0.000007  -0.000072   0.000452   0.514856  -0.001792
    36  H    0.000008  -0.000054  -0.000060   0.000001  -0.001792   0.449038
    37  H    0.000001   0.001540  -0.000064   0.000000  -0.000006   0.000002
    38  H   -0.000002  -0.000213   0.001587   0.000000  -0.000002  -0.000029
    39  H    0.000001  -0.000027  -0.000025   0.000000   0.000018   0.001724
    40  H   -0.000018   0.003052  -0.003402   0.000002   0.003396  -0.002336
    41  H   -0.000000   0.000000  -0.000000  -0.000000   0.000000  -0.000000
              37         38         39         40         41
     1  C   -0.000010  -0.000000   0.000000  -0.000000   0.000472
     2  C    0.000000   0.000000   0.000000   0.000000  -0.002298
     3  C   -0.000116  -0.000008   0.000005  -0.000420  -0.000006
     4  C    0.000035  -0.000001  -0.000002   0.000418  -0.000128
     5  C    0.000001  -0.000000  -0.000000   0.000007   0.005305
     6  C   -0.000000   0.000000   0.000000  -0.000000  -0.032508
     7  C    0.000000   0.000000   0.000000   0.000002   0.000000
     8  C    0.000526   0.000010  -0.000121   0.003904  -0.000000
     9  C   -0.000000  -0.000000  -0.000000  -0.000011   0.000000
    10  C   -0.000000   0.000001  -0.000004  -0.000002  -0.000000
    11  C   -0.000063  -0.000014  -0.000111  -0.000454  -0.000000
    12  C   -0.002677  -0.003090   0.003050  -0.025686   0.000000
    13  C   -0.000000  -0.000000  -0.000000  -0.000080   0.000002
    14  C   -0.000073  -0.000117  -0.000015  -0.000893  -0.000000
    15  C   -0.003721   0.003008  -0.002315  -0.030055   0.000000
    16  C   -0.000001   0.000011   0.000009  -0.001564   0.000003
    17  C    0.408073   0.409446   0.408503  -0.025675  -0.000000
    18  N   -0.033267  -0.031175  -0.032185   0.353365  -0.000000
    19  O    0.000000  -0.000000  -0.000000  -0.000000   0.000000
    20  O    0.000000   0.000000   0.000000   0.000000  -0.000070
    21  O   -0.000000  -0.000000   0.000000  -0.000000   0.321692
    22  H   -0.000002   0.000000  -0.000000  -0.000000  -0.000008
    23  H    0.000000   0.000000  -0.000000   0.000000   0.003026
    24  H   -0.000017   0.000001  -0.000022  -0.000051  -0.000000
    25  H   -0.001301   0.000087  -0.000005  -0.000060   0.000000
    26  H   -0.000000  -0.000000   0.000000  -0.000001   0.000000
    27  H    0.000000   0.000000  -0.000000   0.000000  -0.000000
    28  H    0.000000  -0.000000  -0.000001   0.000002  -0.000000
    29  H   -0.000000  -0.000000   0.000000   0.000003   0.000000
    30  H   -0.000002   0.000003   0.000003   0.001750   0.000000
    31  H    0.000001  -0.000002   0.000001  -0.000018  -0.000000
    32  H    0.001540  -0.000213  -0.000027   0.003052   0.000000
    33  H   -0.000064   0.001587  -0.000025  -0.003402  -0.000000
    34  H    0.000000   0.000000   0.000000   0.000002  -0.000000
    35  H   -0.000006  -0.000002   0.000018   0.003396   0.000000
    36  H    0.000002  -0.000029   0.001724  -0.002336  -0.000000
    37  H    0.484184  -0.022456  -0.022572   0.003061  -0.000000
    38  H   -0.022456   0.471235  -0.020784  -0.003059   0.000000
    39  H   -0.022572  -0.020784   0.473390  -0.002930   0.000000
    40  H    0.003061  -0.003059  -0.002930   0.327438   0.000000
    41  H   -0.000000   0.000000   0.000000   0.000000   0.318684
 Mulliken charges:
               1
     1  C   -0.168258
     2  C   -0.210612
     3  C   -0.014610
     4  C   -0.071588
     5  C    0.412459
     6  C    0.334712
     7  C    0.550765
     8  C   -0.228713
     9  C   -0.314933
    10  C   -0.242240
    11  C   -0.216167
    12  C   -0.059594
    13  C    0.129837
    14  C   -0.141416
    15  C    0.025112
    16  C   -0.140066
    17  C   -0.171675
    18  N   -0.641583
    19  O   -0.572813
    20  O   -0.705254
    21  O   -0.686202
    22  H    0.182471
    23  H    0.189283
    24  H    0.188694
    25  H    0.175320
    26  H    0.174446
    27  H    0.175039
    28  H    0.165040
    29  H    0.154608
    30  H    0.167387
    31  H    0.181008
    32  H    0.200671
    33  H    0.209289
    34  H    0.206110
    35  H    0.177715
    36  H    0.220719
    37  H    0.188928
    38  H    0.195564
    39  H    0.194415
    40  H    0.400297
    41  H    0.385835
 Sum of Mulliken charges =   1.00000
 Mulliken charges with hydrogens summed into heavy atoms:
               1
     1  C    0.014213
     2  C   -0.021329
     3  C   -0.014610
     4  C   -0.071588
     5  C    0.412459
     6  C    0.334712
     7  C    0.550765
     8  C    0.135301
     9  C    0.034552
    10  C    0.077409
    11  C    0.132228
    12  C    0.350366
    13  C    0.335946
    14  C    0.036300
    15  C    0.245831
    16  C   -0.140066
    17  C    0.407231
    18  N   -0.241287
    19  O   -0.572813
    20  O   -0.705254
    21  O   -0.300367
 Electronic spatial extent (au):  <R**2>=           4933.2127
 Charge=              1.0000 electrons
 Dipole moment (field-independent basis, Debye):
    X=            -19.6399    Y=             -2.4791    Z=             -0.2164  Tot=             19.7969
 Quadrupole moment (field-independent basis, Debye-Ang):
   XX=            -84.9432   YY=            -99.4085   ZZ=           -109.2764
   XY=            -16.2331   XZ=            -10.6103   YZ=              5.6137
 Traceless Quadrupole moment (field-independent basis, Debye-Ang):
   XX=             12.9328   YY=             -1.5325   ZZ=            -11.4004
   XY=            -16.2331   XZ=            -10.6103   YZ=              5.6137
 Octapole moment (field-independent basis, Debye-Ang**2):
  XXX=           -226.9308  YYY=            -26.8082  ZZZ=             13.0685  XYY=              1.8356
  XXY=            -92.5284  XXZ=              1.6005  XZZ=            -31.9156  YZZ=              4.9572
  YYZ=            -11.7480  XYZ=             15.3147
 Hexadecapole moment (field-independent basis, Debye-Ang**3):
 XXXX=          -2559.3824 YYYY=          -1951.1239 ZZZZ=           -874.9823 XXXY=           -215.2155
 XXXZ=           -136.3766 YYYX=           -201.6091 YYYZ=             56.2449 ZZZX=            -22.3073
 ZZZY=             -6.2666 XXYY=           -762.5492 XXZZ=           -657.4332 YYZZ=           -464.7422
 XXYZ=             33.0613 YYXZ=            -13.7579 ZZXY=             15.6424
 N-N= 1.843150849902D+03 E-N=-5.849551557668D+03  KE= 9.322693883611D+02
 Merz-Kollman atomic radii used.

 **********************************************************************

            Electrostatic Properties Using The SCF Density

 **********************************************************************

       Atomic Center    1 is at   0.560173 -2.497287 -1.286130
       Atomic Center    2 is at   1.864800 -2.676426 -0.794753
       Atomic Center    3 is at  -0.214306 -1.395389 -0.864220
       Atomic Center    4 is at   0.365372 -0.544215  0.050667
       Atomic Center    5 is at   1.671636 -0.672763  0.485255
       Atomic Center    6 is at   2.444175 -1.752263  0.094468
       Atomic Center    7 is at   1.551148  2.319732 -0.121834
       Atomic Center    8 is at  -1.582521 -1.042336 -1.430883
       Atomic Center    9 is at   0.511618  3.014890 -0.982497
       Atomic Center   10 is at  -0.503721  2.000513 -1.515446
       Atomic Center   11 is at  -1.062676  0.243625  1.929660
       Atomic Center   12 is at  -2.250437 -0.683521  1.625442
       Atomic Center   13 is at   1.035787  1.408889  1.010415
       Atomic Center   14 is at  -1.238302  1.315182 -0.342780
       Atomic Center   15 is at  -2.247679  0.216277 -0.793140
       Atomic Center   16 is at  -0.271910  0.662455  0.665499
       Atomic Center   17 is at  -4.276162 -0.996903  0.179682
       Atomic Center   18 is at  -3.066324 -0.146500  0.462400
       Atomic Center   19 is at   2.730351  2.529796 -0.281651
       Atomic Center   20 is at   2.068605  0.399411  1.265982
       Atomic Center   21 is at   3.721195 -1.905146  0.521267
       Atomic Center   22 is at   0.161319 -3.204838 -2.007442
       Atomic Center   23 is at   2.442485 -3.530780 -1.135967
       Atomic Center   24 is at  -1.436930 -0.824436 -2.495618
       Atomic Center   25 is at  -2.240551 -1.916215 -1.385259
       Atomic Center   26 is at   0.023862  3.794144 -0.379247
       Atomic Center   27 is at   1.016532  3.501675 -1.818886
       Atomic Center   28 is at  -1.232217  2.515754 -2.152535
       Atomic Center   29 is at   0.007781  1.268702 -2.149138
       Atomic Center   30 is at  -1.438678  1.148449  2.429555
       Atomic Center   31 is at  -0.413427 -0.255485  2.654586
       Atomic Center   32 is at  -1.929949 -1.695391  1.371287
       Atomic Center   33 is at  -2.916585 -0.740026  2.489338
       Atomic Center   34 is at   0.925040  2.032635  1.905493
       Atomic Center   35 is at  -1.797103  2.115412  0.169864
       Atomic Center   36 is at  -2.973043  0.640943 -1.492379
       Atomic Center   37 is at  -3.959428 -1.974507 -0.178114
       Atomic Center   38 is at  -4.847306 -1.107469  1.101756
       Atomic Center   39 is at  -4.881290 -0.503964 -0.581953
       Atomic Center   40 is at  -3.454569  0.744285  0.790379
       Atomic Center   41 is at   4.105151 -2.698636  0.126274
    1407 points will be used for fitting atomic charges
 Fitting point charges to electrostatic potential
 Charges from ESP fit, RMS=   0.00132 RRMS=   0.01183:
 ESP charges:
               1
     1  C   -0.313385
     2  C   -0.338253
     3  C    0.376285
     4  C   -0.583694
     5  C    0.553344
     6  C    0.196387
     7  C    0.598922
     8  C   -0.313781
     9  C   -0.268386
    10  C    0.034322
    11  C   -0.183525
    12  C   -0.017910
    13  C    0.107786
    14  C   -0.215356
    15  C    0.075548
    16  C    0.156952
    17  C   -0.429403
    18  N   -0.098653
    19  O   -0.577087
    20  O   -0.477521
    21  O   -0.633441
    22  H    0.199139
    23  H    0.229783
    24  H    0.134883
    25  H    0.135239
    26  H    0.106064
    27  H    0.104376
    28  H    0.063281
    29  H    0.060875
    30  H    0.080802
    31  H    0.128818
    32  H    0.125057
    33  H    0.133891
    34  H    0.125030
    35  H    0.119263
    36  H    0.147651
    37  H    0.213037
    38  H    0.196031
    39  H    0.197856
    40  H    0.370274
    41  H    0.479497
 Sum of ESP charges =   1.00000
 ESP charges with hydrogens summed into heavy atoms:
               1
     1  C   -0.114246
     2  C   -0.108470
     3  C    0.376285
     4  C   -0.583694
     5  C    0.553344
     6  C    0.196387
     7  C    0.598922
     8  C   -0.043658
     9  C   -0.057945
    10  C    0.158478
    11  C    0.026095
    12  C    0.241038
    13  C    0.232816
    14  C   -0.096094
    15  C    0.223200
    16  C    0.156952
    17  C    0.177520
    18  N    0.271622
    19  O   -0.577087
    20  O   -0.477521
    21  O   -0.153944
 Charge=   1.00000 Dipole=   -19.6287    -2.5281    -0.2096 Tot=    19.7919
 Writing Antechamber ESP formatted file "G4.esp"
 -----------------------------------------------------------------

              Electrostatic Properties (Atomic Units)

 -----------------------------------------------------------------
    Center     Electric         -------- Electric Field --------
               Potential          X             Y             Z
 -----------------------------------------------------------------
    1 Atom    -14.605451
    2 Atom    -14.621368
    3 Atom    -14.583782
    4 Atom    -14.611009
    5 Atom    -14.581213
    6 Atom    -14.572878
    7 Atom    -14.536504
    8 Atom    -14.546876
    9 Atom    -14.607113
   10 Atom    -14.579324
   11 Atom    -14.554524
   12 Atom    -14.486785
   13 Atom    -14.540185
   14 Atom    -14.536321
   15 Atom    -14.470114
   16 Atom    -14.553576
   17 Atom    -14.484347
   18 Atom    -18.015041
   19 Atom    -22.267999
   20 Atom    -22.206859
   21 Atom    -22.217888
   22 Atom     -0.988222
   23 Atom     -0.995734
   24 Atom     -0.955192
   25 Atom     -0.939207
   26 Atom     -0.976603
   27 Atom     -1.017338
   28 Atom     -0.976434
   29 Atom     -0.992689
   30 Atom     -0.948528
   31 Atom     -0.968748
   32 Atom     -0.925157
   33 Atom     -0.907546
   34 Atom     -0.972159
   35 Atom     -0.933388
   36 Atom     -0.902358
   37 Atom     -0.908730
   38 Atom     -0.901802
   39 Atom     -0.900687
   40 Atom     -0.768536
   41 Atom     -0.895400
 -----------------------------------------------------------------

 Test job not archived.
 1\1\GINC-CPU188\SP\RHF\6-31G(d,p)\C17H20N1O3(1+)\FEBRERMA\05-Feb-2024\
 0\\# HF/6-31G** SCRF=(Solvent=Water) POP=MK iop(6/50=1) geom=allcheck 
 guess=read\\G4\\1,1\C,0,-0.1038848407,-1.0467668801,-0.2544742136\C,0,
 -0.9295440455,-1.4434529913,-1.3205519295\C,0,0.6211186677,-2.00909532
 5,0.4805754002\C,0,0.4547386797,-3.3257172572,0.1112965932\C,0,-0.2989
 861897,-3.7186013332,-0.9792347162\C,0,-1.0279330957,-2.7934623764,-1.
 7055995251\C,0,2.2307934681,-5.3830437914,-1.3890535046\C,0,1.63630643
 25,-1.6734343628,1.5643139853\C,0,3.5812589193,-5.1282618064,-0.744122
 7776\C,0,3.5119645299,-3.9031482117,0.1714120714\C,0,0.202997515,-4.99
 32493017,1.9406658927\C,0,0.0965584512,-3.9652210371,3.0785376978\C,0,
 1.0060409726,-5.4610729337,-0.4557192281\C,0,2.4831529763,-4.137717640
 5,1.2987799406\C,0,2.2991217163,-2.9115819216,2.243228171\C,0,1.087859
 963,-4.515202359,0.7628187945\C,0,1.4072168867,-2.457081402,4.59500767
 69\N,0,1.4673321459,-3.4191903301,3.4384808339\O,0,2.1380874843,-5.581
 9709781,-2.5773381224\O,0,-0.1697791929,-5.0718701931,-1.2412389916\O,
 0,-1.7851410234,-3.1597673848,-2.7680345714\H,0,-0.0152734274,0.008903
 5109,-0.0142407125\H,0,-1.4758653574,-0.6843434504,-1.8731394406\H,0,2
 .4387560626,-1.1041730909,1.0802131774\H,0,1.1853445672,-0.9999303571,
 2.3003675158\H,0,3.8783385316,-6.0297148645,-0.1889842241\H,0,4.319176
 7695,-4.9569150405,-1.5299741866\H,0,4.500127433,-3.7206728725,0.60993
 09912\H,0,3.2610376779,-3.0171025009,-0.4207933661\H,0,0.6227715484,-5
 .9263423992,2.3445301274\H,0,-0.8078153888,-5.2373974054,1.6018410795\
 H,0,-0.5418580119,-3.120578424,2.8136021281\H,0,-0.3102411735,-4.43610
 49849,3.9763385013\H,0,0.8943399047,-6.5087024005,-0.1516063771\H,0,2.
 8745649204,-4.9809306595,1.8914168045\H,0,3.2632005159,-2.6224964278,2
 .6703242033\H,0,0.8613014666,-1.5637350788,4.2984310303\H,0,0.89695248
 7,-2.9436264891,5.4266056268\H,0,2.4246857675,-2.1890766339,4.88168935
 76\H,0,1.9925588762,-4.2208218479,3.803619501\H,0,-2.1972835902,-2.379
 228766,-3.1604212146\\Version=ES64L-G16RevA.03\State=1-A\HF=-934.34944
 67\RMSD=7.606e-09\Dipole=1.6249363,1.8111449,7.3988753\Quadrupole=-5.1
 801975,-4.2685599,9.4487574,-6.6476717,9.0604732,-10.707494\PG=C01 [X(
 C17H20N1O3)]\\@


 THE PROGRESS OF RIVERS TO THE SEA IS NOT AS RAPID
 AS THAT OF MAN TO ERROR.
                                              -- VOLTAIRE
 Job cpu time:       0 days  0 hours 10 minutes 51.8 seconds.
 Elapsed time:       0 days  0 hours  1 minutes 22.9 seconds.
 File lengths (MBytes):  RWF=    202 Int=      0 D2E=      0 Chk=     16 Scr=      1
 Normal termination of Gaussian 16 at Mon Feb  5 16:02:31 2024.
