 Entering Gaussian System, Link 0=g16
 Initial command:
 /opt/ebsofts/Gaussian/g16/l1.exe "/scratch/Gau-2048314.inp" -scrdir="/scratch/"
 Entering Link 1 = /opt/ebsofts/Gaussian/g16/l1.exe PID=   2048320.
  
 Copyright (c) 1988,1990,1992,1993,1995,1998,2003,2009,2016,
            Gaussian, Inc.  All Rights Reserved.
  
 This is part of the Gaussian(R) 16 program.  It is based on
 the Gaussian(R) 09 system (copyright 2009, Gaussian, Inc.),
 the Gaussian(R) 03 system (copyright 2003, Gaussian, Inc.),
 the Gaussian(R) 98 system (copyright 1998, Gaussian, Inc.),
 the Gaussian(R) 94 system (copyright 1995, Gaussian, Inc.),
 the Gaussian 92(TM) system (copyright 1992, Gaussian, Inc.),
 the Gaussian 90(TM) system (copyright 1990, Gaussian, Inc.),
 the Gaussian 88(TM) system (copyright 1988, Gaussian, Inc.),
 the Gaussian 86(TM) system (copyright 1986, Carnegie Mellon
 University), and the Gaussian 82(TM) system (copyright 1983,
 Carnegie Mellon University). Gaussian is a federally registered
 trademark of Gaussian, Inc.
  
 This software contains proprietary and confidential information,
 including trade secrets, belonging to Gaussian, Inc.
  
 This software is provided under written license and may be
 used, copied, transmitted, or stored only in accord with that
 written license.
  
 The following legend is applicable only to US Government
 contracts under FAR:
  
                    RESTRICTED RIGHTS LEGEND
  
 Use, reproduction and disclosure by the US Government is
 subject to restrictions as set forth in subparagraphs (a)
 and (c) of the Commercial Computer Software - Restricted
 Rights clause in FAR 52.227-19.
  
 Gaussian, Inc.
 340 Quinnipiac St., Bldg. 40, Wallingford CT 06492
  
  
 ---------------------------------------------------------------
 Warning -- This program may not be used in any manner that
 competes with the business of Gaussian, Inc. or will provide
 assistance to any competitor of Gaussian, Inc.  The licensee
 of this program is prohibited from giving any competitor of
 Gaussian, Inc. access to this program.  By using this program,
 the user acknowledges that Gaussian, Inc. is engaged in the
 business of creating and licensing software in the field of
 computational chemistry and represents and warrants to the
 licensee that it is not a competitor of Gaussian, Inc. and that
 it will not use this program in any manner prohibited above.
 ---------------------------------------------------------------
  

 Cite this work as:
 Gaussian 16, Revision A.03,
 M. J. Frisch, G. W. Trucks, H. B. Schlegel, G. E. Scuseria, 
 M. A. Robb, J. R. Cheeseman, G. Scalmani, V. Barone, 
 G. A. Petersson, H. Nakatsuji, X. Li, M. Caricato, A. V. Marenich, 
 J. Bloino, B. G. Janesko, R. Gomperts, B. Mennucci, H. P. Hratchian, 
 J. V. Ortiz, A. F. Izmaylov, J. L. Sonnenberg, D. Williams-Young, 
 F. Ding, F. Lipparini, F. Egidi, J. Goings, B. Peng, A. Petrone, 
 T. Henderson, D. Ranasinghe, V. G. Zakrzewski, J. Gao, N. Rega, 
 G. Zheng, W. Liang, M. Hada, M. Ehara, K. Toyota, R. Fukuda, 
 J. Hasegawa, M. Ishida, T. Nakajima, Y. Honda, O. Kitao, H. Nakai, 
 T. Vreven, K. Throssell, J. A. Montgomery, Jr., J. E. Peralta, 
 F. Ogliaro, M. J. Bearpark, J. J. Heyd, E. N. Brothers, K. N. Kudin, 
 V. N. Staroverov, T. A. Keith, R. Kobayashi, J. Normand, 
 K. Raghavachari, A. P. Rendell, J. C. Burant, S. S. Iyengar, 
 J. Tomasi, M. Cossi, J. M. Millam, M. Klene, C. Adamo, R. Cammi, 
 J. W. Ochterski, R. L. Martin, K. Morokuma, O. Farkas, 
 J. B. Foresman, and D. J. Fox, Gaussian, Inc., Wallingford CT, 2016.
 
 ******************************************
 Gaussian 16:  ES64L-G16RevA.03 25-Dec-2016
                 5-Feb-2024 
 ******************************************
 %Chk=G7.chk
 %nprocshared=8
 Will use up to    8 processors via shared memory.
 %mem=1GB
 --------------------------------
 # B3LYP/6-31G** opt=Modredundant
 --------------------------------
 1/18=120,19=15,26=3,38=1/1,3;
 2/9=110,12=2,17=6,18=5,40=1/2;
 3/5=1,6=6,7=101,11=2,25=1,30=1,71=1,74=-5/1,2,3;
 4//1;
 5/5=2,38=5/2;
 6/7=2,8=2,9=2,10=2,28=1/1;
 7//1,2,3,16;
 1/18=20,19=15,26=3/3(2);
 2/9=110/2;
 99//99;
 2/9=110/2;
 3/5=1,6=6,7=101,11=2,25=1,30=1,71=1,74=-5/1,2,3;
 4/5=5,16=3,69=1/1;
 5/5=2,38=5/2;
 7//1,2,3,16;
 1/18=20,19=15,26=3/3(-5);
 2/9=110/2;
 6/7=2,8=2,9=2,10=2,19=2,28=1/1;
 99/9=1/99;
 --
 G7
 --
 Symbolic Z-matrix:
 Charge =  1 Multiplicity = 1
 C                     8.85      38.0825   30.7142 
 C                     7.8403    38.7781   29.8045 
 C                     9.0583    36.6062   30.3919 
 C                     7.9395    38.4983   28.3046 
 C                     10.4378   36.2648   29.8329 
 C                     9.3041    38.7627   27.67 
 C                     11.0726   37.2236   28.8223 
 C                     10.3039   37.6022   27.5555 
 N                     9.6793    36.4065   26.937 
 H                     9.8045    38.6136   30.7412 
 H                     8.4537    38.1264   31.7353 
 H                     6.8065    38.6072   30.1571 
 H                     7.9738    39.8715   29.9255 
 H                     8.9287    36.044    31.3165 
 H                     8.2874    36.2668   29.7025 
 H                     7.6301    37.4725   28.1157 
 H                     7.2168    39.1382   27.7969 
 H                     11.1447   36.0412   30.6671 
 H                     10.3311   35.2795   29.3218 
 H                     9.1171    39.142    26.6517 
 H                     9.7887    39.6069   28.1811 
 H                     11.2776   38.1821   29.3649 
 H                     12.1106   36.8817   28.5741 
 H                     11.0703   37.9374   26.8017 
 H                     8.8606    36.113    27.474 
 H                     10.3443   35.6305   26.91 
 H                     9.3828    36.6128   25.9807 
 
 The following ModRedundant input section has been read:
 D    *       *       *       *    F                                           
 

 GradGradGradGradGradGradGradGradGradGradGradGradGradGradGradGradGradGrad
 Berny optimization.
 Initialization pass.
                           ----------------------------
                           !    Initial Parameters    !
                           ! (Angstroms and Degrees)  !
 --------------------------                            --------------------------
 ! Name  Definition              Value          Derivative Info.                !
 --------------------------------------------------------------------------------
 ! R1    R(1,2)                  1.5267         estimate D2E/DX2                !
 ! R2    R(1,3)                  1.5254         estimate D2E/DX2                !
 ! R3    R(1,10)                 1.0926         estimate D2E/DX2                !
 ! R4    R(1,11)                 1.0962         estimate D2E/DX2                !
 ! R5    R(2,4)                  1.529          estimate D2E/DX2                !
 ! R6    R(2,12)                 1.1056         estimate D2E/DX2                !
 ! R7    R(2,13)                 1.1081         estimate D2E/DX2                !
 ! R8    R(3,5)                  1.5271         estimate D2E/DX2                !
 ! R9    R(3,14)                 1.0898         estimate D2E/DX2                !
 ! R10   R(3,15)                 1.0885         estimate D2E/DX2                !
 ! R11   R(4,6)                  1.528          estimate D2E/DX2                !
 ! R12   R(4,16)                 1.088          estimate D2E/DX2                !
 ! R13   R(4,17)                 1.0907         estimate D2E/DX2                !
 ! R14   R(5,7)                  1.5309         estimate D2E/DX2                !
 ! R15   R(5,18)                 1.1161         estimate D2E/DX2                !
 ! R16   R(5,19)                 1.1151         estimate D2E/DX2                !
 ! R17   R(6,8)                  1.5361         estimate D2E/DX2                !
 ! R18   R(6,20)                 1.1026         estimate D2E/DX2                !
 ! R19   R(6,21)                 1.0994         estimate D2E/DX2                !
 ! R20   R(7,8)                  1.5294         estimate D2E/DX2                !
 ! R21   R(7,22)                 1.1203         estimate D2E/DX2                !
 ! R22   R(7,23)                 1.1207         estimate D2E/DX2                !
 ! R23   R(8,9)                  1.484          estimate D2E/DX2                !
 ! R24   R(8,24)                 1.126          estimate D2E/DX2                !
 ! R25   R(9,25)                 1.0221         estimate D2E/DX2                !
 ! R26   R(9,26)                 1.0223         estimate D2E/DX2                !
 ! R27   R(9,27)                 1.0222         estimate D2E/DX2                !
 ! A1    A(2,1,3)              113.9145         estimate D2E/DX2                !
 ! A2    A(2,1,10)             111.7771         estimate D2E/DX2                !
 ! A3    A(2,1,11)             107.3191         estimate D2E/DX2                !
 ! A4    A(3,1,10)             110.8771         estimate D2E/DX2                !
 ! A5    A(3,1,11)             106.5559         estimate D2E/DX2                !
 ! A6    A(10,1,11)            105.8627         estimate D2E/DX2                !
 ! A7    A(1,2,4)              117.2727         estimate D2E/DX2                !
 ! A8    A(1,2,12)             110.9747         estimate D2E/DX2                !
 ! A9    A(1,2,13)             107.7471         estimate D2E/DX2                !
 ! A10   A(4,2,12)             110.1966         estimate D2E/DX2                !
 ! A11   A(4,2,13)             106.2517         estimate D2E/DX2                !
 ! A12   A(12,2,13)            103.3177         estimate D2E/DX2                !
 ! A13   A(1,3,5)              114.6499         estimate D2E/DX2                !
 ! A14   A(1,3,14)             107.684          estimate D2E/DX2                !
 ! A15   A(1,3,15)             109.8098         estimate D2E/DX2                !
 ! A16   A(5,3,14)             107.6168         estimate D2E/DX2                !
 ! A17   A(5,3,15)             109.7692         estimate D2E/DX2                !
 ! A18   A(14,3,15)            106.9936         estimate D2E/DX2                !
 ! A19   A(2,4,6)              115.7019         estimate D2E/DX2                !
 ! A20   A(2,4,16)             108.9299         estimate D2E/DX2                !
 ! A21   A(2,4,17)             107.8355         estimate D2E/DX2                !
 ! A22   A(6,4,16)             110.1826         estimate D2E/DX2                !
 ! A23   A(6,4,17)             107.2727         estimate D2E/DX2                !
 ! A24   A(16,4,17)            106.4944         estimate D2E/DX2                !
 ! A25   A(3,5,7)              118.4385         estimate D2E/DX2                !
 ! A26   A(3,5,18)             110.0811         estimate D2E/DX2                !
 ! A27   A(3,5,19)             106.1934         estimate D2E/DX2                !
 ! A28   A(7,5,18)             110.8708         estimate D2E/DX2                !
 ! A29   A(7,5,19)             106.8886         estimate D2E/DX2                !
 ! A30   A(18,5,19)            103.0716         estimate D2E/DX2                !
 ! A31   A(4,6,8)              118.7844         estimate D2E/DX2                !
 ! A32   A(4,6,20)             106.955          estimate D2E/DX2                !
 ! A33   A(4,6,21)             109.4776         estimate D2E/DX2                !
 ! A34   A(8,6,20)             107.544          estimate D2E/DX2                !
 ! A35   A(8,6,21)             109.14           estimate D2E/DX2                !
 ! A36   A(20,6,21)            103.8832         estimate D2E/DX2                !
 ! A37   A(5,7,8)              119.5661         estimate D2E/DX2                !
 ! A38   A(5,7,22)             106.977          estimate D2E/DX2                !
 ! A39   A(5,7,23)             109.8281         estimate D2E/DX2                !
 ! A40   A(8,7,22)             106.3403         estimate D2E/DX2                !
 ! A41   A(8,7,23)             110.9536         estimate D2E/DX2                !
 ! A42   A(22,7,23)            101.4663         estimate D2E/DX2                !
 ! A43   A(6,8,7)              116.8999         estimate D2E/DX2                !
 ! A44   A(6,8,9)              111.4591         estimate D2E/DX2                !
 ! A45   A(6,8,24)             105.5457         estimate D2E/DX2                !
 ! A46   A(7,8,9)              110.9345         estimate D2E/DX2                !
 ! A47   A(7,8,24)             106.6241         estimate D2E/DX2                !
 ! A48   A(9,8,24)             104.3183         estimate D2E/DX2                !
 ! A49   A(8,9,25)             110.4571         estimate D2E/DX2                !
 ! A50   A(8,9,26)             110.4147         estimate D2E/DX2                !
 ! A51   A(8,9,27)             110.4481         estimate D2E/DX2                !
 ! A52   A(25,9,26)            108.4772         estimate D2E/DX2                !
 ! A53   A(25,9,27)            108.488          estimate D2E/DX2                !
 ! A54   A(26,9,27)            108.4907         estimate D2E/DX2                !
 ! D1    D(3,1,2,4)            -44.5545         Frozen                          !
 ! D2    D(3,1,2,12)            83.2971         Frozen                          !
 ! D3    D(3,1,2,13)          -164.263          Frozen                          !
 ! D4    D(10,1,2,4)            82.0972         Frozen                          !
 ! D5    D(10,1,2,12)         -150.0512         Frozen                          !
 ! D6    D(10,1,2,13)          -37.6113         Frozen                          !
 ! D7    D(11,1,2,4)          -162.2513         Frozen                          !
 ! D8    D(11,1,2,12)          -34.3997         Frozen                          !
 ! D9    D(11,1,2,13)           78.0403         Frozen                          !
 ! D10   D(2,1,3,5)            112.0639         Frozen                          !
 ! D11   D(2,1,3,14)          -128.2124         Frozen                          !
 ! D12   D(2,1,3,15)           -12.0508         Frozen                          !
 ! D13   D(10,1,3,5)           -15.0561         Frozen                          !
 ! D14   D(10,1,3,14)          104.6677         Frozen                          !
 ! D15   D(10,1,3,15)         -139.1708         Frozen                          !
 ! D16   D(11,1,3,5)          -129.8007         Frozen                          !
 ! D17   D(11,1,3,14)          -10.0769         Frozen                          !
 ! D18   D(11,1,3,15)          106.0846         Frozen                          !
 ! D19   D(1,2,4,6)            -54.6782         Frozen                          !
 ! D20   D(1,2,4,16)            70.0622         Frozen                          !
 ! D21   D(1,2,4,17)          -174.7456         Frozen                          !
 ! D22   D(12,2,4,6)           177.0967         Frozen                          !
 ! D23   D(12,2,4,16)          -58.163          Frozen                          !
 ! D24   D(12,2,4,17)           57.0292         Frozen                          !
 ! D25   D(13,2,4,6)            65.8189         Frozen                          !
 ! D26   D(13,2,4,16)         -169.4408         Frozen                          !
 ! D27   D(13,2,4,17)          -54.2486         Frozen                          !
 ! D28   D(1,3,5,7)            -40.3947         Frozen                          !
 ! D29   D(1,3,5,18)            88.6081         Frozen                          !
 ! D30   D(1,3,5,19)          -160.4807         Frozen                          !
 ! D31   D(14,3,5,7)          -160.1559         Frozen                          !
 ! D32   D(14,3,5,18)          -31.1531         Frozen                          !
 ! D33   D(14,3,5,19)           79.7581         Frozen                          !
 ! D34   D(15,3,5,7)            83.7415         Frozen                          !
 ! D35   D(15,3,5,18)         -147.2557         Frozen                          !
 ! D36   D(15,3,5,19)          -36.3445         Frozen                          !
 ! D37   D(2,4,6,8)             93.2505         Frozen                          !
 ! D38   D(2,4,6,20)          -144.9424         Frozen                          !
 ! D39   D(2,4,6,21)           -32.9861         Frozen                          !
 ! D40   D(16,4,6,8)           -30.8403         Frozen                          !
 ! D41   D(16,4,6,20)           90.9668         Frozen                          !
 ! D42   D(16,4,6,21)         -157.0769         Frozen                          !
 ! D43   D(17,4,6,8)          -146.3764         Frozen                          !
 ! D44   D(17,4,6,20)          -24.5693         Frozen                          !
 ! D45   D(17,4,6,21)           87.387          Frozen                          !
 ! D46   D(3,5,7,8)            -54.7741         Frozen                          !
 ! D47   D(3,5,7,22)            65.9823         Frozen                          !
 ! D48   D(3,5,7,23)           175.3136         Frozen                          !
 ! D49   D(18,5,7,8)           176.5896         Frozen                          !
 ! D50   D(18,5,7,22)          -62.654          Frozen                          !
 ! D51   D(18,5,7,23)           46.6773         Frozen                          !
 ! D52   D(19,5,7,8)            64.9529         Frozen                          !
 ! D53   D(19,5,7,22)         -174.2907         Frozen                          !
 ! D54   D(19,5,7,23)          -64.9594         Frozen                          !
 ! D55   D(4,6,8,7)            -78.5002         Frozen                          !
 ! D56   D(4,6,8,9)             50.5438         Frozen                          !
 ! D57   D(4,6,8,24)           163.198          Frozen                          !
 ! D58   D(20,6,8,7)           159.9893         Frozen                          !
 ! D59   D(20,6,8,9)           -70.9667         Frozen                          !
 ! D60   D(20,6,8,24)           41.6876         Frozen                          !
 ! D61   D(21,6,8,7)            47.8973         Frozen                          !
 ! D62   D(21,6,8,9)           176.9413         Frozen                          !
 ! D63   D(21,6,8,24)          -70.4044         Frozen                          !
 ! D64   D(5,7,8,6)             84.8837         Frozen                          !
 ! D65   D(5,7,8,9)            -44.4101         Frozen                          !
 ! D66   D(5,7,8,24)          -157.3992         Frozen                          !
 ! D67   D(22,7,8,6)           -36.1909         Frozen                          !
 ! D68   D(22,7,8,9)          -165.4846         Frozen                          !
 ! D69   D(22,7,8,24)           81.5262         Frozen                          !
 ! D70   D(23,7,8,6)          -145.7087         Frozen                          !
 ! D71   D(23,7,8,9)            84.9976         Frozen                          !
 ! D72   D(23,7,8,24)          -27.9916         Frozen                          !
 ! D73   D(6,8,9,25)           -57.2735         Frozen                          !
 ! D74   D(6,8,9,26)          -177.2581         Frozen                          !
 ! D75   D(6,8,9,27)            62.7462         Frozen                          !
 ! D76   D(7,8,9,25)            74.8605         Frozen                          !
 ! D77   D(7,8,9,26)           -45.1241         Frozen                          !
 ! D78   D(7,8,9,27)          -165.1198         Frozen                          !
 ! D79   D(24,8,9,25)         -170.6974         Frozen                          !
 ! D80   D(24,8,9,26)           69.318          Frozen                          !
 ! D81   D(24,8,9,27)          -50.6777         Frozen                          !
 --------------------------------------------------------------------------------
 Trust Radius=3.00D-01 FncErr=1.00D-07 GrdErr=1.00D-06 EigMax=2.50D+02 EigMin=1.00D-04
 Number of steps in this run=    162 maximum allowed number of steps=    162.
 GradGradGradGradGradGradGradGradGradGradGradGradGradGradGradGradGradGrad

                          Input orientation:                          
 ---------------------------------------------------------------------
 Center     Atomic      Atomic             Coordinates (Angstroms)
 Number     Number       Type             X           Y           Z
 ---------------------------------------------------------------------
      1          6           0        8.850000   38.082500   30.714199
      2          6           0        7.840300   38.778099   29.804501
      3          6           0        9.058300   36.606201   30.391899
      4          6           0        7.939500   38.498299   28.304600
      5          6           0       10.437800   36.264801   29.832899
      6          6           0        9.304100   38.762699   27.670000
      7          6           0       11.072600   37.223598   28.822300
      8          6           0       10.303900   37.602200   27.555500
      9          7           0        9.679300   36.406502   26.937000
     10          1           0        9.804500   38.613602   30.741199
     11          1           0        8.453700   38.126400   31.735300
     12          1           0        6.806500   38.607201   30.157101
     13          1           0        7.973800   39.871498   29.925501
     14          1           0        8.928700   36.043999   31.316500
     15          1           0        8.287400   36.266800   29.702499
     16          1           0        7.630100   37.472500   28.115700
     17          1           0        7.216800   39.138199   27.796900
     18          1           0       11.144700   36.041199   30.667101
     19          1           0       10.331100   35.279499   29.321800
     20          1           0        9.117100   39.141998   26.651699
     21          1           0        9.788700   39.606899   28.181101
     22          1           0       11.277600   38.182098   29.364901
     23          1           0       12.110600   36.881699   28.574100
     24          1           0       11.070300   37.937401   26.801701
     25          1           0        8.860600   36.112999   27.474001
     26          1           0       10.344300   35.630501   26.910000
     27          1           0        9.382800   36.612801   25.980700
 ---------------------------------------------------------------------
                    Distance matrix (angstroms):
                    1          2          3          4          5
     1  C    0.000000
     2  C    1.526729   0.000000
     3  C    1.525361   2.558457   0.000000
     4  C    2.609227   1.528997   3.031265   0.000000
     5  C    2.569402   3.614482   1.527107   3.683166   0.000000
     6  C    3.152146   2.588251   3.481327   1.527991   3.493265
     7  C    3.042523   3.718730   2.627209   3.421870   1.530873
     8  C    3.510255   3.536958   3.254027   2.637145   2.644449
     9  N    4.214729   4.150778   3.515942   3.045135   2.996937
    10  H    1.092643   2.182325   2.169904   3.070592   2.596718
    11  H    1.096188   2.128134   2.116902   3.488899   3.319839
    12  H    2.182100   1.105566   3.021545   2.174237   4.333392
    13  H    2.142495   1.108145   3.472151   2.124658   4.368997
    14  H    2.127075   3.308483   1.089841   4.009195   2.127724
    15  H    2.153328   2.552827   1.088463   2.656077   2.154351
    16  H    2.934698   2.144953   2.823351   1.087968   3.505779
    17  H    3.506063   2.132812   4.066467   1.090654   4.772478
    18  H    3.071608   4.376501   2.178997   4.678895   1.116064
    19  H    3.462549   4.321723   2.127268   4.137042   1.115091
    20  H    4.206874   3.420936   4.519161   2.129125   4.488045
    21  H    3.101860   2.668070   3.798065   2.159580   3.784097
    22  H    2.779167   3.516176   2.909204   3.516693   2.144834
    23  H    4.080865   4.831737   3.563261   4.481529   2.182521
    24  H    4.500936   4.489597   4.325478   3.517843   3.519348
    25  H    3.791824   3.684427   2.965883   2.688490   2.841655
    26  H    4.766252   4.955353   3.837891   3.994025   2.992393
    27  H    4.984968   4.657175   4.423123   3.322458   4.009185
                    6          7          8          9         10
     6  C    0.000000
     7  C    2.612321   0.000000
     8  C    1.536056   1.529386   0.000000
     9  N    2.495942   2.482597   1.484035   0.000000
    10  H    3.115268   2.687445   3.379499   4.399874   0.000000
    11  H    4.201752   4.019858   4.600951   5.242502   1.746500
    12  H    3.528152   4.679280   4.473272   4.844080   3.054376
    13  H    2.843663   4.222675   4.024423   4.883243   2.366248
    14  H    4.563904   3.494109   4.297009   4.458119   2.775042
    15  H    3.375536   3.073687   3.234064   3.099175   2.981270
    16  H    2.159986   3.523073   2.734932   2.593242   3.594909
    17  H    2.124600   4.425419   3.456552   3.776970   3.954781
    18  H    4.447132   2.192386   3.581303   4.024239   2.901531
    19  H    3.989468   2.139823   2.918132   2.717030   3.661727
    20  H    1.102621   3.495103   2.143905   2.807206   4.180398
    21  H    1.099425   2.782024   2.162320   3.435447   2.746086
    22  H    2.665425   1.120341   2.135019   3.406172   2.061654
    23  H    3.497428   1.120688   2.195639   2.969365   3.607479
    24  H    2.134133   2.142975   1.126029   2.072882   4.192749
    25  H    2.693700   2.818561   2.075446   1.022147   4.221202
    26  H    3.386780   2.593313   2.075066   1.022317   4.885526
    27  H    2.735323   3.362021   2.075411   1.022243   5.181060
                   11         12         13         14         15
    11  H    0.000000
    12  H    2.331341   0.000000
    13  H    2.559501   1.736282   0.000000
    14  H    2.176560   3.523910   4.182877   0.000000
    15  H    2.760081   2.806636   3.625179   1.750973   0.000000
    16  H    3.769271   2.476526   3.024682   3.737927   2.098496
    17  H    4.250253   2.453743   2.375230   4.989214   3.608660
    18  H    3.567996   5.066009   5.027501   2.309195   3.024155
    19  H    4.177853   4.918753   5.196900   2.555389   2.301392
    20  H    5.226331   4.232343   3.543598   5.602987   4.273470
    21  H    4.075099   3.714497   2.531167   4.823337   3.965453
    22  H    3.687317   4.560595   3.752791   3.727940   3.567020
    23  H    4.991531   5.797993   5.279990   4.283338   4.033391
    24  H    5.587729   5.466931   4.804911   5.343672   4.353168
    25  H    4.730541   4.199928   4.574121   3.843722   2.306169
    26  H    5.752165   5.649817   5.718267   4.646735   3.526154
    27  H    6.022427   5.296912   5.307150   5.385212   3.895049
                   16         17         18         19         20
    16  H    0.000000
    17  H    1.745567   0.000000
    18  H    4.572820   5.766963   0.000000
    19  H    3.682300   5.187846   1.746988   0.000000
    20  H    2.672394   2.218702   5.463476   4.849962   0.000000
    21  H    3.036361   2.642340   4.553367   4.507969   1.733854
    22  H    3.920241   4.456776   2.509350   3.053326   3.598699
    23  H    4.542473   5.444732   2.453580   2.508530   4.214928
    24  H    3.711833   4.157138   4.306093   3.736544   2.299684
    25  H    1.942717   3.458060   3.926596   2.504287   3.149096
    26  H    3.494790   4.782446   3.863304   2.437244   3.728720
    27  H    2.892968   3.790485   5.039184   3.720204   2.630147
                   21         22         23         24         25
    21  H    0.000000
    22  H    2.376608   0.000000
    23  H    3.601719   1.735020   0.000000
    24  H    2.516439   2.583185   2.310439   0.000000
    25  H    3.683571   3.701157   3.516194   2.943332   0.000000
    26  H    4.211429   3.661726   2.730301   2.420866   1.658996
    27  H    3.737799   4.183991   3.773450   2.297012   1.659049
                   26         27
    26  H    0.000000
    27  H    1.659215   0.000000
 Stoichiometry    C8H18N(1+)
 Framework group  C1[X(C8H18N)]
 Deg. of freedom    75
 Full point group                 C1      NOp   1
 Largest Abelian subgroup         C1      NOp   1
 Largest concise Abelian subgroup C1      NOp   1
                         Standard orientation:                         
 ---------------------------------------------------------------------
 Center     Atomic      Atomic             Coordinates (Angstroms)
 Number     Number       Type             X           Y           Z
 ---------------------------------------------------------------------
      1          6           0        1.894685    0.578326    0.304755
      2          6           0        1.989717   -0.909821   -0.022797
      3          6           0        1.020875    1.369909   -0.663014
      4          6           0        0.692047   -1.630952   -0.388657
      5          6           0       -0.273883    1.907867   -0.057822
      6          6           0       -0.441299   -1.513045    0.629372
      7          6           0       -1.056604    1.010817    0.904582
      8          6           0       -1.475735   -0.390546    0.457891
      9          7           0       -2.026184   -0.365375   -0.920054
     10          1           0        1.582455    0.746796    1.338196
     11          1           0        2.905430    0.995127    0.225392
     12          1           0        2.760618   -1.097110   -0.792803
     13          1           0        2.390776   -1.427511    0.871146
     14          1           0        1.601937    2.223694   -1.011112
     15          1           0        0.794024    0.761934   -1.536890
     16          1           0        0.358100   -1.283497   -1.364069
     17          1           0        0.919172   -2.691976   -0.498975
     18          1           0       -0.097828    2.914395    0.391070
     19          1           0       -0.949958    2.129415   -0.916464
     20          1           0       -0.985913   -2.471694    0.616715
     21          1           0       -0.019452   -1.462669    1.643395
     22          1           0       -0.419133    0.873750    1.815629
     23          1           0       -1.928691    1.574805    1.325680
     24          1           0       -2.350908   -0.685690    1.102022
     25          1           0       -1.273794   -0.256948   -1.603382
     26          1           0       -2.678086    0.414490   -1.029445
     27          1           0       -2.524281   -1.235009   -1.121591
 ---------------------------------------------------------------------
 Rotational constants (GHZ):           1.9205395           1.5512737           1.0838668
 Standard basis: 6-31G(d,p) (6D, 7F)
 There are   225 symmetry adapted cartesian basis functions of A   symmetry.
 There are   225 symmetry adapted basis functions of A   symmetry.
   225 basis functions,   378 primitive gaussians,   225 cartesian basis functions
    36 alpha electrons       36 beta electrons
       nuclear repulsion energy       520.3276949390 Hartrees.
 NAtoms=   27 NActive=   27 NUniq=   27 SFac= 1.00D+00 NAtFMM=   60 NAOKFM=F Big=F
 Integral buffers will be    131072 words long.
 Raffenetti 2 integral format.
 Two-electron integral symmetry is turned on.
 One-electron integrals computed using PRISM.
 NBasis=   225 RedAO= T EigKep=  2.81D-03  NBF=   225
 NBsUse=   225 1.00D-06 EigRej= -1.00D+00 NBFU=   225
 ExpMin= 1.61D-01 ExpMax= 4.17D+03 ExpMxC= 6.27D+02 IAcc=3 IRadAn=         5 AccDes= 0.00D+00
 Harris functional with IExCor=  402 and IRadAn=       5 diagonalized for initial guess.
 HarFok:  IExCor=  402 AccDes= 0.00D+00 IRadAn=         5 IDoV= 1 UseB2=F ITyADJ=14
 ICtDFT=  3500011 ScaDFX=  1.000000  1.000000  1.000000  1.000000
 FoFCou: FMM=F IPFlag=           0 FMFlag=      100000 FMFlg1=           0
         NFxFlg=           0 DoJE=T BraDBF=F KetDBF=T FulRan=T
         wScrn=  0.000000 ICntrl=       500 IOpCl=  0 I1Cent=   200000004 NGrid=           0
         NMat0=    1 NMatS0=      1 NMatT0=    0 NMatD0=    1 NMtDS0=    0 NMtDT0=    0
 Petite list used in FoFCou.
 Requested convergence on RMS density matrix=1.00D-08 within 128 cycles.
 Requested convergence on MAX density matrix=1.00D-06.
 Requested convergence on             energy=1.00D-06.
 No special actions if energy rises.
 Integral accuracy reduced to 1.0D-05 until final iterations.
 Initial convergence to 1.0D-05 achieved.  Increase integral accuracy.
 SCF Done:  E(RB3LYP) =  -370.225656244     A.U. after   12 cycles
            NFock= 12  Conv=0.41D-08     -V/T= 2.0097

 **********************************************************************

            Population analysis using the SCF density.

 **********************************************************************

 Orbital symmetries:
       Occupied  (A) (A) (A) (A) (A) (A) (A) (A) (A) (A) (A) (A)
                 (A) (A) (A) (A) (A) (A) (A) (A) (A) (A) (A) (A)
                 (A) (A) (A) (A) (A) (A) (A) (A) (A) (A) (A) (A)
       Virtual   (A) (A) (A) (A) (A) (A) (A) (A) (A) (A) (A) (A)
                 (A) (A) (A) (A) (A) (A) (A) (A) (A) (A) (A) (A)
                 (A) (A) (A) (A) (A) (A) (A) (A) (A) (A) (A) (A)
                 (A) (A) (A) (A) (A) (A) (A) (A) (A) (A) (A) (A)
                 (A) (A) (A) (A) (A) (A) (A) (A) (A) (A) (A) (A)
                 (A) (A) (A) (A) (A) (A) (A) (A) (A) (A) (A) (A)
                 (A) (A) (A) (A) (A) (A) (A) (A) (A) (A) (A) (A)
                 (A) (A) (A) (A) (A) (A) (A) (A) (A) (A) (A) (A)
                 (A) (A) (A) (A) (A) (A) (A) (A) (A) (A) (A) (A)
                 (A) (A) (A) (A) (A) (A) (A) (A) (A) (A) (A) (A)
                 (A) (A) (A) (A) (A) (A) (A) (A) (A) (A) (A) (A)
                 (A) (A) (A) (A) (A) (A) (A) (A) (A) (A) (A) (A)
                 (A) (A) (A) (A) (A) (A) (A) (A) (A) (A) (A) (A)
                 (A) (A) (A) (A) (A) (A) (A) (A) (A) (A) (A) (A)
                 (A) (A) (A) (A) (A) (A) (A) (A) (A) (A) (A) (A)
                 (A) (A) (A) (A) (A) (A) (A) (A) (A)
 The electronic state is 1-A.
 Alpha  occ. eigenvalues --  -14.64969 -10.42346 -10.34910 -10.34819 -10.33219
 Alpha  occ. eigenvalues --  -10.32804 -10.31080 -10.30589 -10.29992  -1.20159
 Alpha  occ. eigenvalues --   -0.98045  -0.92881  -0.92552  -0.83912  -0.83135
 Alpha  occ. eigenvalues --   -0.78087  -0.77162  -0.76546  -0.72472  -0.69260
 Alpha  occ. eigenvalues --   -0.63571  -0.62940  -0.60708  -0.59216  -0.57453
 Alpha  occ. eigenvalues --   -0.57293  -0.54595  -0.52410  -0.51385  -0.50394
 Alpha  occ. eigenvalues --   -0.48953  -0.47926  -0.47416  -0.44807  -0.43855
 Alpha  occ. eigenvalues --   -0.43452
 Alpha virt. eigenvalues --   -0.15534  -0.10443  -0.09152  -0.06675  -0.04748
 Alpha virt. eigenvalues --   -0.02367  -0.02024  -0.01620  -0.00203   0.00681
 Alpha virt. eigenvalues --    0.01856   0.02795   0.03086   0.03818   0.05111
 Alpha virt. eigenvalues --    0.05242   0.05834   0.07678   0.07807   0.09009
 Alpha virt. eigenvalues --    0.09596   0.10068   0.14304   0.15263   0.15594
 Alpha virt. eigenvalues --    0.18668   0.21423   0.31398   0.33882   0.34984
 Alpha virt. eigenvalues --    0.36080   0.36892   0.39922   0.41840   0.42445
 Alpha virt. eigenvalues --    0.44450   0.45898   0.49074   0.50298   0.50778
 Alpha virt. eigenvalues --    0.52038   0.53616   0.56093   0.57240   0.57905
 Alpha virt. eigenvalues --    0.58889   0.60109   0.61434   0.62370   0.62785
 Alpha virt. eigenvalues --    0.65509   0.66613   0.67898   0.69386   0.69972
 Alpha virt. eigenvalues --    0.70689   0.72070   0.73557   0.74289   0.75527
 Alpha virt. eigenvalues --    0.77246   0.78685   0.79407   0.79889   0.80981
 Alpha virt. eigenvalues --    0.81726   0.82789   0.83253   0.84783   0.85372
 Alpha virt. eigenvalues --    0.87930   0.94776   1.02135   1.05565   1.06328
 Alpha virt. eigenvalues --    1.13290   1.13976   1.23082   1.24298   1.28864
 Alpha virt. eigenvalues --    1.32042   1.33477   1.41306   1.42038   1.43926
 Alpha virt. eigenvalues --    1.47194   1.50127   1.51903   1.55314   1.59625
 Alpha virt. eigenvalues --    1.61155   1.63230   1.64724   1.66332   1.66707
 Alpha virt. eigenvalues --    1.69348   1.69931   1.72902   1.74587   1.75644
 Alpha virt. eigenvalues --    1.77898   1.79299   1.81217   1.81910   1.83262
 Alpha virt. eigenvalues --    1.85088   1.89637   1.90622   1.92329   1.94512
 Alpha virt. eigenvalues --    1.96097   1.98669   1.99266   2.00081   2.02820
 Alpha virt. eigenvalues --    2.05987   2.06613   2.09203   2.10620   2.11878
 Alpha virt. eigenvalues --    2.13042   2.14153   2.14732   2.16050   2.17224
 Alpha virt. eigenvalues --    2.18341   2.20068   2.21599   2.23169   2.23759
 Alpha virt. eigenvalues --    2.28224   2.29276   2.30192   2.33696   2.37623
 Alpha virt. eigenvalues --    2.39071   2.42703   2.45249   2.47812   2.49036
 Alpha virt. eigenvalues --    2.50302   2.51922   2.52953   2.54039   2.55879
 Alpha virt. eigenvalues --    2.58545   2.59466   2.60507   2.62622   2.65174
 Alpha virt. eigenvalues --    2.65754   2.69471   2.69744   2.71055   2.72669
 Alpha virt. eigenvalues --    2.74385   2.76177   2.77878   2.79587   2.81976
 Alpha virt. eigenvalues --    2.83655   2.85066   2.99063   3.08743   3.11356
 Alpha virt. eigenvalues --    3.12513   3.13841   3.16951   3.18439   3.19859
 Alpha virt. eigenvalues --    3.21950   3.22863   3.25685   3.29397   3.30899
 Alpha virt. eigenvalues --    3.33389   3.36406   3.38182   3.41222   3.46455
 Alpha virt. eigenvalues --    3.88488   4.11685   4.21302   4.27640   4.44875
 Alpha virt. eigenvalues --    4.55850   4.58246   4.61657   4.65496
          Condensed to atoms (all electrons):
               1          2          3          4          5          6
     1  C    4.928402   0.372350   0.359323  -0.053698  -0.043522   0.001112
     2  C    0.372350   4.908145  -0.043543   0.372336  -0.000127  -0.045234
     3  C    0.359323  -0.043543   4.957489  -0.008444   0.358503  -0.001547
     4  C   -0.053698   0.372336  -0.008444   4.966508   0.002893   0.345700
     5  C   -0.043522  -0.000127   0.358503   0.002893   4.968292  -0.001514
     6  C    0.001112  -0.045234  -0.001547   0.345700  -0.001514   5.005782
     7  C   -0.007442   0.003253  -0.053933  -0.001625   0.359508  -0.045360
     8  C   -0.002284  -0.000517   0.003433  -0.037963  -0.046004   0.355851
     9  N    0.000372   0.000227  -0.001775  -0.008417  -0.006616  -0.051513
    10  H    0.392261  -0.035866  -0.050573  -0.002810  -0.010288   0.003660
    11  H    0.391890  -0.030006  -0.038072   0.005253   0.004497  -0.000191
    12  H   -0.032769   0.388264  -0.002878  -0.032329  -0.000016   0.005206
    13  H   -0.034572   0.385909   0.005267  -0.040978  -0.000165  -0.008893
    14  H   -0.034546   0.004225   0.395402   0.000007  -0.029365   0.000045
    15  H   -0.049633  -0.011321   0.381155  -0.001221  -0.044728  -0.000486
    16  H   -0.005214  -0.040676   0.001574   0.367493  -0.000885  -0.055214
    17  H    0.004433  -0.028983   0.000295   0.391353  -0.000020  -0.031758
    18  H   -0.001698  -0.000050  -0.030790  -0.000030   0.391054  -0.000067
    19  H    0.005698  -0.000165  -0.044377  -0.000048   0.368714   0.000051
    20  H   -0.000066   0.004368  -0.000040  -0.037980  -0.000116   0.377653
    21  H   -0.000194  -0.005893   0.000235  -0.034513  -0.000048   0.389368
    22  H    0.002507  -0.000310  -0.006873  -0.000370  -0.033385  -0.008442
    23  H    0.000259  -0.000021   0.004436  -0.000082  -0.030117   0.004306
    24  H   -0.000046  -0.000090  -0.000076   0.004070   0.003820  -0.037808
    25  H   -0.000580  -0.000846   0.002733   0.007602   0.003255  -0.006406
    26  H    0.000027  -0.000022   0.000064   0.000218   0.000494   0.004285
    27  H   -0.000002   0.000032  -0.000056  -0.000291   0.000204  -0.000080
               7          8          9         10         11         12
     1  C   -0.007442  -0.002284   0.000372   0.392261   0.391890  -0.032769
     2  C    0.003253  -0.000517   0.000227  -0.035866  -0.030006   0.388264
     3  C   -0.053933   0.003433  -0.001775  -0.050573  -0.038072  -0.002878
     4  C   -0.001625  -0.037963  -0.008417  -0.002810   0.005253  -0.032329
     5  C    0.359508  -0.046004  -0.006616  -0.010288   0.004497  -0.000016
     6  C   -0.045360   0.355851  -0.051513   0.003660  -0.000191   0.005206
     7  C    5.014225   0.344479  -0.049231  -0.001706   0.000008  -0.000051
     8  C    0.344479   5.087402   0.155470  -0.000832   0.000086  -0.000119
     9  N   -0.049231   0.155470   6.540860  -0.000017  -0.000004   0.000001
    10  H   -0.001706  -0.000832  -0.000017   0.619468  -0.030435   0.005009
    11  H    0.000008   0.000086  -0.000004  -0.030435   0.579836  -0.008567
    12  H   -0.000051  -0.000119   0.000001   0.005009  -0.008567   0.588761
    13  H   -0.000033  -0.000050  -0.000006  -0.008240  -0.000217  -0.033530
    14  H    0.004843  -0.000232   0.000048   0.002948  -0.012101   0.000089
    15  H   -0.002497   0.003956  -0.002560   0.005470   0.003412   0.001826
    16  H    0.000047  -0.014357  -0.003421  -0.000239  -0.000036  -0.005648
    17  H   -0.000074   0.004272   0.000346  -0.000089  -0.000139  -0.002346
    18  H   -0.025160   0.005015  -0.000100   0.001198   0.000128  -0.000002
    19  H   -0.047090  -0.014651   0.003998   0.000278  -0.000197   0.000009
    20  H    0.005086  -0.035709  -0.002233  -0.000012   0.000000  -0.000184
    21  H   -0.006679  -0.030249   0.003780  -0.000021  -0.000068   0.000100
    22  H    0.386597  -0.039085   0.004417   0.005928  -0.000184   0.000017
    23  H    0.375554  -0.030879  -0.000954  -0.000092  -0.000007   0.000000
    24  H   -0.035639   0.399658  -0.045537   0.000027   0.000001   0.000002
    25  H   -0.004958  -0.021293   0.315897   0.000044   0.000013   0.000018
    26  H   -0.001535  -0.023916   0.333725  -0.000001  -0.000000   0.000000
    27  H    0.004483  -0.020923   0.332932   0.000001  -0.000000  -0.000001
              13         14         15         16         17         18
     1  C   -0.034572  -0.034546  -0.049633  -0.005214   0.004433  -0.001698
     2  C    0.385909   0.004225  -0.011321  -0.040676  -0.028983  -0.000050
     3  C    0.005267   0.395402   0.381155   0.001574   0.000295  -0.030790
     4  C   -0.040978   0.000007  -0.001221   0.367493   0.391353  -0.000030
     5  C   -0.000165  -0.029365  -0.044728  -0.000885  -0.000020   0.391054
     6  C   -0.008893   0.000045  -0.000486  -0.055214  -0.031758  -0.000067
     7  C   -0.000033   0.004843  -0.002497   0.000047  -0.000074  -0.025160
     8  C   -0.000050  -0.000232   0.003956  -0.014357   0.004272   0.005015
     9  N   -0.000006   0.000048  -0.002560  -0.003421   0.000346  -0.000100
    10  H   -0.008240   0.002948   0.005470  -0.000239  -0.000089   0.001198
    11  H   -0.000217  -0.012101   0.003412  -0.000036  -0.000139   0.000128
    12  H   -0.033530   0.000089   0.001826  -0.005648  -0.002346  -0.000002
    13  H    0.607437  -0.000167   0.000199   0.006634  -0.005081   0.000006
    14  H   -0.000167   0.564247  -0.030041  -0.000064  -0.000007  -0.009053
    15  H    0.000199  -0.030041   0.673589   0.001129  -0.000102   0.005375
    16  H    0.006634  -0.000064   0.001129   0.699556  -0.031239   0.000016
    17  H   -0.005081  -0.000007  -0.000102  -0.031239   0.562798   0.000000
    18  H    0.000006  -0.009053   0.005375   0.000016   0.000000   0.550185
    19  H    0.000005   0.000149  -0.010492  -0.000120  -0.000001  -0.031652
    20  H    0.000080   0.000001   0.000026   0.001698  -0.011002   0.000002
    21  H    0.004761  -0.000001  -0.000035   0.005546   0.000603  -0.000012
    22  H    0.000023   0.000099  -0.000153   0.000030  -0.000018  -0.004291
    23  H   -0.000001  -0.000126  -0.000118  -0.000015   0.000003  -0.003577
    24  H   -0.000002   0.000001  -0.000005   0.000023  -0.000176  -0.000113
    25  H    0.000036  -0.000149   0.006653   0.013732  -0.000638  -0.000043
    26  H    0.000001  -0.000000  -0.000213   0.000159   0.000002  -0.000131
    27  H    0.000001   0.000001   0.000033   0.000598  -0.000086   0.000001
              19         20         21         22         23         24
     1  C    0.005698  -0.000066  -0.000194   0.002507   0.000259  -0.000046
     2  C   -0.000165   0.004368  -0.005893  -0.000310  -0.000021  -0.000090
     3  C   -0.044377  -0.000040   0.000235  -0.006873   0.004436  -0.000076
     4  C   -0.000048  -0.037980  -0.034513  -0.000370  -0.000082   0.004070
     5  C    0.368714  -0.000116  -0.000048  -0.033385  -0.030117   0.003820
     6  C    0.000051   0.377653   0.389368  -0.008442   0.004306  -0.037808
     7  C   -0.047090   0.005086  -0.006679   0.386597   0.375554  -0.035639
     8  C   -0.014651  -0.035709  -0.030249  -0.039085  -0.030879   0.399658
     9  N    0.003998  -0.002233   0.003780   0.004417  -0.000954  -0.045537
    10  H    0.000278  -0.000012  -0.000021   0.005928  -0.000092   0.000027
    11  H   -0.000197   0.000000  -0.000068  -0.000184  -0.000007   0.000001
    12  H    0.000009  -0.000184   0.000100   0.000017   0.000000   0.000002
    13  H    0.000005   0.000080   0.004761   0.000023  -0.000001  -0.000002
    14  H    0.000149   0.000001  -0.000001   0.000099  -0.000126   0.000001
    15  H   -0.010492   0.000026  -0.000035  -0.000153  -0.000118  -0.000005
    16  H   -0.000120   0.001698   0.005546   0.000030  -0.000015   0.000023
    17  H   -0.000001  -0.011002   0.000603  -0.000018   0.000003  -0.000176
    18  H   -0.031652   0.000002  -0.000012  -0.004291  -0.003577  -0.000113
    19  H    0.691924   0.000004   0.000010   0.006337  -0.003966  -0.000043
    20  H    0.000004   0.605177  -0.028110   0.000262  -0.000206  -0.008119
    21  H    0.000010  -0.028110   0.539496   0.003755   0.000166  -0.001145
    22  H    0.006337   0.000262   0.003755   0.562568  -0.030473   0.000114
    23  H   -0.003966  -0.000206   0.000166  -0.030473   0.585752  -0.008072
    24  H   -0.000043  -0.008119  -0.001145   0.000114  -0.008072   0.560150
    25  H    0.000366  -0.000312   0.000188   0.000074  -0.000264   0.005273
    26  H    0.003287  -0.000200  -0.000091  -0.000035   0.002828  -0.002460
    27  H    0.000100   0.003908  -0.000115  -0.000104  -0.000224  -0.005437
              25         26         27
     1  C   -0.000580   0.000027  -0.000002
     2  C   -0.000846  -0.000022   0.000032
     3  C    0.002733   0.000064  -0.000056
     4  C    0.007602   0.000218  -0.000291
     5  C    0.003255   0.000494   0.000204
     6  C   -0.006406   0.004285  -0.000080
     7  C   -0.004958  -0.001535   0.004483
     8  C   -0.021293  -0.023916  -0.020923
     9  N    0.315897   0.333725   0.332932
    10  H    0.000044  -0.000001   0.000001
    11  H    0.000013  -0.000000  -0.000000
    12  H    0.000018   0.000000  -0.000001
    13  H    0.000036   0.000001   0.000001
    14  H   -0.000149  -0.000000   0.000001
    15  H    0.006653  -0.000213   0.000033
    16  H    0.013732   0.000159   0.000598
    17  H   -0.000638   0.000002  -0.000086
    18  H   -0.000043  -0.000131   0.000001
    19  H    0.000366   0.003287   0.000100
    20  H   -0.000312  -0.000200   0.003908
    21  H    0.000188  -0.000091  -0.000115
    22  H    0.000074  -0.000035  -0.000104
    23  H   -0.000264   0.002828  -0.000224
    24  H    0.005273  -0.002460  -0.005437
    25  H    0.356314  -0.015944  -0.015918
    26  H   -0.015944   0.349186  -0.015186
    27  H   -0.015918  -0.015186   0.352404
 Mulliken charges:
               1
     1  C   -0.192370
     2  C   -0.195439
     3  C   -0.186931
     4  C   -0.202634
     5  C   -0.214318
     6  C   -0.198506
     7  C   -0.215072
     8  C   -0.040557
     9  N   -0.519689
    10  H    0.104928
    11  H    0.135100
    12  H    0.129136
    13  H    0.121577
    14  H    0.143747
    15  H    0.070780
    16  H    0.058891
    17  H    0.147655
    18  H    0.153787
    19  H    0.071872
    20  H    0.126022
    21  H    0.159166
    22  H    0.150998
    23  H    0.135891
    24  H    0.171628
    25  H    0.355154
    26  H    0.365457
    27  H    0.363726
 Sum of Mulliken charges =   1.00000
 Mulliken charges with hydrogens summed into heavy atoms:
               1
     1  C    0.047658
     2  C    0.055274
     3  C    0.027596
     4  C    0.003912
     5  C    0.011341
     6  C    0.086683
     7  C    0.071817
     8  C    0.131071
     9  N    0.564648
 Electronic spatial extent (au):  <R**2>=           1262.0128
 Charge=              1.0000 electrons
 Dipole moment (field-independent basis, Debye):
    X=             -6.5597    Y=             -1.3091    Z=             -2.3755  Tot=              7.0983
 Quadrupole moment (field-independent basis, Debye-Ang):
   XX=            -34.4063   YY=            -48.7723   ZZ=            -49.7419
   XY=              3.1553   XZ=              6.5054   YZ=              1.3314
 Traceless Quadrupole moment (field-independent basis, Debye-Ang):
   XX=              9.9005   YY=             -4.4655   ZZ=             -5.4350
   XY=              3.1553   XZ=              6.5054   YZ=              1.3314
 Octapole moment (field-independent basis, Debye-Ang**2):
  XXX=            -50.3927  YYY=             -3.7016  ZZZ=             -6.9868  XYY=             -5.9302
  XXY=             -7.1427  XXZ=            -18.9183  XZZ=            -14.5732  YZZ=             -2.9461
  YYZ=             -1.0725  XYZ=             -3.9964
 Hexadecapole moment (field-independent basis, Debye-Ang**3):
 XXXX=           -617.3291 YYYY=           -592.6253 ZZZZ=           -228.4265 XXXY=             23.7386
 XXXZ=             47.1360 YYYX=             14.8027 YYYZ=              6.8450 ZZZX=             22.4463
 ZZZY=              4.0774 XXYY=           -208.0396 XXZZ=           -142.4387 YYZZ=           -142.4006
 XXYZ=              7.2071 YYXZ=              5.5602 ZZXY=              3.9225
 N-N= 5.203276949390D+02 E-N=-1.884166266809D+03  KE= 3.666532209989D+02
 Calling FoFJK, ICntrl=      2127 FMM=F ISym2X=0 I1Cent= 0 IOpClX= 0 NMat=1 NMatS=1 NMatT=0.
 ***** Axes restored to original set *****
 -------------------------------------------------------------------
 Center     Atomic                   Forces (Hartrees/Bohr)
 Number     Number              X              Y              Z
 -------------------------------------------------------------------
      1        6          -0.009125423   -0.001254966    0.011550235
      2        6          -0.004090852    0.024018879    0.003387208
      3        6           0.005707495    0.002310406    0.006119220
      4        6          -0.001897751    0.001741749    0.007223960
      5        6           0.005265603   -0.030700274   -0.007333703
      6        6          -0.005030274    0.008284816   -0.011713292
      7        6           0.025236987    0.017778951    0.022485029
      8        6           0.032518220    0.031065602   -0.002745030
      9        7          -0.004833457   -0.009971417   -0.007611703
     10        1           0.000025868    0.001825015   -0.000546733
     11        1           0.002227133    0.005736260   -0.000663565
     12        1           0.006022557   -0.004855433   -0.004384593
     13        1          -0.001060242   -0.005196355    0.000422347
     14        1          -0.001794918   -0.006461046   -0.001861757
     15        1          -0.005849424   -0.003761996   -0.000646463
     16        1          -0.007095958   -0.005962525   -0.004044014
     17        1          -0.003387243   -0.001630795   -0.000955255
     18        1          -0.004874480    0.009229780   -0.011922579
     19        1           0.003646581    0.002561842    0.006392799
     20        1           0.002651195   -0.002788884    0.000876220
     21        1           0.002905254   -0.005523454   -0.001085252
     22        1          -0.003364734   -0.009930268   -0.011249547
     23        1          -0.016145022   -0.001715480   -0.000967788
     24        1          -0.011665661   -0.006717824    0.011795424
     25        1          -0.003017571   -0.003016717    0.000685399
     26        1           0.000020094   -0.003212291   -0.000933966
     27        1          -0.002993980   -0.001853575   -0.002272600
 -------------------------------------------------------------------
 Cartesian Forces:  Max     0.032518220 RMS     0.009611092

 GradGradGradGradGradGradGradGradGradGradGradGradGradGradGradGradGradGrad
 Berny optimization.
 FormGI is forming the generalized inverse of G from B-inverse, IUseBI=4.
 Internal  Forces:  Max     0.023328335 RMS     0.004443882
 Search for a local minimum.
 Step number   1 out of a maximum of  162
 All quantities printed in internal units (Hartrees-Bohrs-Radians)
 Mixed Optimization -- RFO/linear search
 Second derivative matrix not updated -- first step.
 ITU=  0
     Eigenvalues ---    0.16000   0.16000   0.16000   0.21798   0.25486
     Eigenvalues ---    0.26354   0.28250   0.29172   0.29481   0.29548
     Eigenvalues ---    0.29677   0.29685   0.30960   0.31494   0.31529
     Eigenvalues ---    0.31966   0.32067   0.32797   0.33074   0.33394
     Eigenvalues ---    0.33746   0.34107   0.34112   0.34509   0.34737
     Eigenvalues ---    0.34831   0.34991   0.35048   0.43970   0.43982
     Eigenvalues ---    0.439971000.000001000.000001000.000001000.00000
     Eigenvalues --- 1000.000001000.000001000.000001000.000001000.00000
     Eigenvalues --- 1000.000001000.000001000.000001000.000001000.00000
     Eigenvalues --- 1000.000001000.000001000.000001000.000001000.00000
     Eigenvalues --- 1000.000001000.000001000.000001000.000001000.00000
     Eigenvalues --- 1000.000001000.000001000.000001000.000001000.00000
     Eigenvalues --- 1000.000001000.000001000.000001000.000001000.00000
     Eigenvalues --- 1000.000001000.000001000.000001000.000001000.00000
     Eigenvalues --- 1000.000001000.000001000.000001000.000001000.00000
     Eigenvalues --- 1000.000001000.000001000.000001000.000001000.00000
     Eigenvalues --- 1000.000001000.000001000.000001000.000001000.00000
     Eigenvalues --- 1000.000001000.000001000.000001000.000001000.00000
     Eigenvalues --- 1000.000001000.000001000.000001000.000001000.00000
     Eigenvalues --- 1000.000001000.000001000.000001000.000001000.00000
     Eigenvalues --- 1000.000001000.000001000.000001000.000001000.00000
     Eigenvalues --- 1000.000001000.000001000.000001000.000001000.00000
     Eigenvalues --- 1000.000001000.000001000.000001000.000001000.00000
     Eigenvalues --- 1000.000001000.000001000.000001000.000001000.00000
     Eigenvalues --- 1000.000001000.000001000.000001000.000001000.00000
     Eigenvalues --- 1000.000001000.000001000.000001000.000001000.00000
     Eigenvalues --- 1000.000001000.000001000.000001000.000001000.00000
     Eigenvalues --- 1000.000001000.000001000.000001000.000001000.00000
     Eigenvalues --- 1000.000001000.000001000.000001000.000001000.00000
     Eigenvalues --- 1000.000001000.000001000.000001000.000001000.00000
     Eigenvalues --- 1000.000001000.000001000.000001000.000001000.00000
     Eigenvalues --- 1000.000001000.000001000.000001000.000001000.00000
     Eigenvalues --- 1000.000001000.00000
 RFO step:  Lambda=-7.99376719D-03 EMin= 1.60000000D-01
 Linear search not attempted -- first point.
 Iteration  1 RMS(Cart)=  0.01989434 RMS(Int)=  0.00008370
 Iteration  2 RMS(Cart)=  0.00009434 RMS(Int)=  0.00001997
 Iteration  3 RMS(Cart)=  0.00000001 RMS(Int)=  0.00001997
 Iteration  1 RMS(Cart)=  0.00000547 RMS(Int)=  0.00000295
 Iteration  2 RMS(Cart)=  0.00000240 RMS(Int)=  0.00000317
 Iteration  3 RMS(Cart)=  0.00000156 RMS(Int)=  0.00000344
 Iteration  4 RMS(Cart)=  0.00000124 RMS(Int)=  0.00000366
 Iteration  5 RMS(Cart)=  0.00000107 RMS(Int)=  0.00000387
 Iteration  6 RMS(Cart)=  0.00000095 RMS(Int)=  0.00000407
 Variable       Old X    -DE/DX   Delta X   Delta X   Delta X     New X
                                 (Linear)    (Quad)   (Total)
    R1        2.88510   0.00868   0.00000   0.02866   0.02868   2.91378
    R2        2.88251   0.01732   0.00000   0.04411   0.04415   2.92666
    R3        2.06480   0.00090   0.00000   0.00254   0.00254   2.06734
    R4        2.07150  -0.00119   0.00000  -0.00342  -0.00342   2.06808
    R5        2.88939   0.00638   0.00000   0.02687   0.02687   2.91625
    R6        2.08922  -0.00628   0.00000  -0.01854  -0.01854   2.07068
    R7        2.09409  -0.00521   0.00000  -0.01550  -0.01550   2.07859
    R8        2.88581   0.01319   0.00000   0.04407   0.04408   2.92990
    R9        2.05950   0.00197   0.00000   0.00552   0.00552   2.06502
   R10        2.05690   0.00572   0.00000   0.01599   0.01599   2.07289
   R11        2.88749   0.01322   0.00000   0.03782   0.03782   2.92531
   R12        2.05596   0.00834   0.00000   0.02327   0.02327   2.07923
   R13        2.06104   0.00173   0.00000   0.00487   0.00487   2.06591
   R14        2.89293   0.00559   0.00000   0.02644   0.02642   2.91935
   R15        2.10905  -0.01385   0.00000  -0.04226  -0.04226   2.06679
   R16        2.10722  -0.00554   0.00000  -0.01687  -0.01687   2.09035
   R17        2.90273   0.00520   0.00000   0.02400   0.02397   2.92669
   R18        2.08365  -0.00222   0.00000  -0.00649  -0.00649   2.07717
   R19        2.07761  -0.00347   0.00000  -0.01003  -0.01003   2.06758
   R20        2.89012   0.00540   0.00000   0.01494   0.01493   2.90505
   R21        2.11714  -0.01456   0.00000  -0.04504  -0.04504   2.07210
   R22        2.11779  -0.01422   0.00000  -0.04402  -0.04402   2.07377
   R23        2.80442   0.02333   0.00000   0.06682   0.06682   2.87124
   R24        2.12789  -0.01784   0.00000  -0.05616  -0.05616   2.07173
   R25        1.93158   0.00364   0.00000   0.00813   0.00813   1.93971
   R26        1.93190   0.00248   0.00000   0.00553   0.00553   1.93743
   R27        1.93176   0.00262   0.00000   0.00585   0.00585   1.93761
    A1        1.98818   0.00235   0.00000  -0.00276  -0.00273   1.98546
    A2        1.95088  -0.00314   0.00000   0.00100   0.00099   1.95187
    A3        1.87307  -0.00093   0.00000   0.00082   0.00081   1.87388
    A4        1.93517  -0.00056   0.00000   0.00105   0.00104   1.93621
    A5        1.85975   0.00326   0.00000   0.00086   0.00085   1.86060
    A6        1.84765  -0.00090   0.00000  -0.00085  -0.00084   1.84681
    A7        2.04679  -0.00081   0.00000   0.00391   0.00394   2.05073
    A8        1.93687   0.00017   0.00000  -0.00142  -0.00143   1.93544
    A9        1.88054   0.00017   0.00000  -0.00117  -0.00117   1.87937
   A10        1.92329  -0.00227   0.00000  -0.00148  -0.00148   1.92181
   A11        1.85444   0.00197   0.00000  -0.00129  -0.00130   1.85314
   A12        1.80323   0.00123   0.00000   0.00115   0.00115   1.80438
   A13        2.00102   0.00195   0.00000  -0.01185  -0.01180   1.98922
   A14        1.87944   0.00320   0.00000   0.00376   0.00375   1.88319
   A15        1.91654  -0.00118   0.00000   0.00415   0.00414   1.92068
   A16        1.87827  -0.00188   0.00000   0.00378   0.00377   1.88204
   A17        1.91583  -0.00014   0.00000   0.00416   0.00415   1.91998
   A18        1.86739  -0.00219   0.00000  -0.00362  -0.00363   1.86376
   A19        2.01938  -0.00094   0.00000  -0.00964  -0.00962   2.00976
   A20        1.90119   0.00048   0.00000   0.00349   0.00348   1.90467
   A21        1.88208   0.00011   0.00000   0.00302   0.00303   1.88512
   A22        1.92305   0.00113   0.00000   0.00326   0.00326   1.92631
   A23        1.87226   0.00154   0.00000   0.00313   0.00312   1.87539
   A24        1.85868  -0.00252   0.00000  -0.00290  -0.00291   1.85577
   A25        2.06714  -0.00142   0.00000   0.00099   0.00098   2.06812
   A26        1.92128   0.00371   0.00000  -0.00038  -0.00038   1.92090
   A27        1.85342   0.00092   0.00000  -0.00031  -0.00031   1.85311
   A28        1.93506  -0.00594   0.00000  -0.00036  -0.00036   1.93471
   A29        1.86556   0.00357   0.00000  -0.00030  -0.00030   1.86526
   A30        1.79894  -0.00032   0.00000   0.00028   0.00028   1.79922
   A31        2.07318   0.00274   0.00000   0.00575   0.00572   2.07890
   A32        1.86672   0.00170   0.00000  -0.00189  -0.00189   1.86483
   A33        1.91074   0.00153   0.00000  -0.00203  -0.00201   1.90873
   A34        1.87700  -0.00202   0.00000  -0.00183  -0.00181   1.87519
   A35        1.90485  -0.00524   0.00000  -0.00207  -0.00206   1.90279
   A36        1.81310   0.00127   0.00000   0.00165   0.00163   1.81474
   A37        2.08682  -0.00020   0.00000   0.00393   0.00392   2.09074
   A38        1.86710   0.00467   0.00000  -0.00121  -0.00122   1.86589
   A39        1.91686  -0.00151   0.00000  -0.00152  -0.00151   1.91535
   A40        1.85599  -0.00351   0.00000  -0.00127  -0.00126   1.85473
   A41        1.93651  -0.00094   0.00000  -0.00143  -0.00143   1.93508
   A42        1.77092   0.00215   0.00000   0.00111   0.00110   1.77202
   A43        2.04029   0.00403   0.00000  -0.00000  -0.00001   2.04028
   A44        1.94533  -0.00340   0.00000   0.00000  -0.00000   1.94533
   A45        1.84212   0.00046   0.00000   0.00000   0.00001   1.84213
   A46        1.93617  -0.00145   0.00000   0.00000   0.00001   1.93618
   A47        1.86094  -0.00036   0.00000   0.00000  -0.00000   1.86094
   A48        1.82070   0.00067   0.00000   0.00000  -0.00000   1.82069
   A49        1.92784   0.00178   0.00000   0.01192   0.01184   1.93968
   A50        1.92710   0.00203   0.00000   0.01158   0.01150   1.93860
   A51        1.92768   0.00319   0.00000   0.01817   0.01805   1.94573
   A52        1.89328  -0.00231   0.00000  -0.01216  -0.01221   1.88108
   A53        1.89347  -0.00279   0.00000  -0.01558  -0.01570   1.87778
   A54        1.89352  -0.00215   0.00000  -0.01539  -0.01550   1.87802
    D1       -0.77762   0.00393   0.00000   0.00000  -0.00000  -0.77763
    D2        1.45381   0.00013   0.00000   0.00000  -0.00000   1.45381
    D3       -2.86693   0.00177   0.00000   0.00000  -0.00000  -2.86693
    D4        1.43287   0.00245   0.00000   0.00000  -0.00000   1.43286
    D5       -2.61889  -0.00135   0.00000   0.00000   0.00000  -2.61889
    D6       -0.65644   0.00029   0.00000   0.00000   0.00000  -0.65644
    D7       -2.83182  -0.00087   0.00000   0.00000  -0.00000  -2.83182
    D8       -0.60039  -0.00468   0.00000   0.00000   0.00000  -0.60039
    D9        1.36206  -0.00304   0.00000   0.00000   0.00000   1.36206
   D10        1.95588  -0.00275   0.00000   0.00000   0.00000   1.95588
   D11       -2.23773  -0.00163   0.00000   0.00000   0.00000  -2.23773
   D12       -0.21033  -0.00307   0.00000   0.00000  -0.00000  -0.21033
   D13       -0.26278   0.00009   0.00000   0.00000   0.00000  -0.26278
   D14        1.82680   0.00121   0.00000   0.00000   0.00000   1.82680
   D15       -2.42899  -0.00024   0.00000   0.00000  -0.00000  -2.42899
   D16       -2.26545  -0.00039   0.00000   0.00000   0.00000  -2.26545
   D17       -0.17588   0.00073   0.00000   0.00000   0.00000  -0.17588
   D18        1.85153  -0.00071   0.00000   0.00000  -0.00000   1.85153
   D19       -0.95431  -0.00079   0.00000   0.00000  -0.00000  -0.95432
   D20        1.22282   0.00041   0.00000   0.00000  -0.00000   1.22281
   D21       -3.04989  -0.00225   0.00000   0.00000  -0.00000  -3.04989
   D22        3.09092   0.00182   0.00000   0.00000  -0.00000   3.09092
   D23       -1.01514   0.00302   0.00000   0.00000   0.00000  -1.01513
   D24        0.99535   0.00036   0.00000   0.00000   0.00000   0.99535
   D25        1.14876   0.00042   0.00000   0.00000  -0.00000   1.14875
   D26       -2.95730   0.00163   0.00000   0.00000   0.00000  -2.95730
   D27       -0.94682  -0.00104   0.00000   0.00000   0.00000  -0.94682
   D28       -0.70502   0.00474   0.00000   0.00000  -0.00000  -0.70502
   D29        1.54650  -0.00151   0.00000   0.00000  -0.00000   1.54650
   D30       -2.80092   0.00026   0.00000   0.00000   0.00000  -2.80092
   D31       -2.79525   0.00079   0.00000   0.00000  -0.00000  -2.79525
   D32       -0.54372  -0.00546   0.00000   0.00000   0.00000  -0.54372
   D33        1.39204  -0.00369   0.00000   0.00000   0.00000   1.39204
   D34        1.46157   0.00451   0.00000   0.00000  -0.00000   1.46156
   D35       -2.57010  -0.00174   0.00000   0.00000   0.00000  -2.57010
   D36       -0.63433   0.00003   0.00000   0.00000   0.00000  -0.63433
   D37        1.62753  -0.00185   0.00000   0.00000  -0.00001   1.62752
   D38       -2.52972  -0.00122   0.00000   0.00000  -0.00000  -2.52972
   D39       -0.57572   0.00184   0.00000   0.00000  -0.00000  -0.57572
   D40       -0.53826  -0.00271   0.00000   0.00000  -0.00000  -0.53827
   D41        1.58767  -0.00208   0.00000   0.00000   0.00000   1.58767
   D42       -2.74151   0.00097   0.00000   0.00000   0.00000  -2.74151
   D43       -2.55475  -0.00117   0.00000   0.00000  -0.00000  -2.55475
   D44       -0.42881  -0.00054   0.00000   0.00000   0.00000  -0.42881
   D45        1.52519   0.00252   0.00000   0.00000   0.00000   1.52519
   D46       -0.95599  -0.00172   0.00000   0.00000  -0.00000  -0.95599
   D47        1.15161  -0.00264   0.00000   0.00000  -0.00000   1.15161
   D48        3.05980   0.00144   0.00000   0.00000  -0.00000   3.05980
   D49        3.08207   0.00008   0.00000   0.00000  -0.00000   3.08207
   D50       -1.09352  -0.00084   0.00000   0.00000   0.00000  -1.09352
   D51        0.81467   0.00324   0.00000   0.00000   0.00000   0.81467
   D52        1.13364   0.00139   0.00000   0.00000  -0.00000   1.13364
   D53       -3.04195   0.00047   0.00000   0.00000   0.00000  -3.04195
   D54       -1.13375   0.00456   0.00000   0.00000   0.00000  -1.13375
   D55       -1.37009   0.00290   0.00000   0.00000  -0.00001  -1.37009
   D56        0.88216   0.00120   0.00000   0.00000  -0.00000   0.88216
   D57        2.84834   0.00065   0.00000   0.00000  -0.00000   2.84834
   D58        2.79234   0.00038   0.00000   0.00000  -0.00000   2.79234
   D59       -1.23860  -0.00133   0.00000   0.00000   0.00000  -1.23860
   D60        0.72759  -0.00188   0.00000   0.00000   0.00000   0.72759
   D61        0.83597   0.00244   0.00000   0.00000  -0.00000   0.83596
   D62        3.08821   0.00073   0.00000   0.00000   0.00000   3.08821
   D63       -1.22879   0.00019   0.00000   0.00000   0.00000  -1.22879
   D64        1.48150   0.00012   0.00000   0.00000  -0.00000   1.48150
   D65       -0.77510   0.00276   0.00000   0.00000  -0.00000  -0.77510
   D66       -2.74713   0.00287   0.00000   0.00000  -0.00000  -2.74714
   D67       -0.63165  -0.00305   0.00000   0.00000  -0.00000  -0.63165
   D68       -2.88825  -0.00040   0.00000   0.00000   0.00000  -2.88825
   D69        1.42290  -0.00029   0.00000   0.00000   0.00000   1.42290
   D70       -2.54310  -0.00333   0.00000   0.00000  -0.00000  -2.54310
   D71        1.48349  -0.00068   0.00000   0.00000   0.00000   1.48349
   D72       -0.48855  -0.00057   0.00000   0.00000   0.00000  -0.48854
   D73       -0.99961  -0.00104   0.00000   0.00000   0.00000  -0.99961
   D74       -3.09374  -0.00063   0.00000   0.00000   0.00000  -3.09373
   D75        1.09513  -0.00131   0.00000   0.00000   0.00000   1.09513
   D76        1.30656   0.00030   0.00000   0.00000  -0.00000   1.30656
   D77       -0.78756   0.00072   0.00000   0.00000  -0.00000  -0.78757
   D78       -2.88188   0.00003   0.00000   0.00000  -0.00000  -2.88189
   D79       -2.97923  -0.00041   0.00000   0.00000  -0.00000  -2.97923
   D80        1.20983   0.00000   0.00000   0.00000  -0.00000   1.20983
   D81       -0.88449  -0.00068   0.00000   0.00000  -0.00000  -0.88449
         Item               Value     Threshold  Converged?
 Maximum Force            0.023328     0.000450     NO 
 RMS     Force            0.005612     0.000300     NO 
 Maximum Displacement     0.071273     0.001800     NO 
 RMS     Displacement     0.019898     0.001200     NO 
 Predicted change in Energy=-4.099038D-03
 GradGradGradGradGradGradGradGradGradGradGradGradGradGradGradGradGradGrad

                          Input orientation:                          
 ---------------------------------------------------------------------
 Center     Atomic      Atomic             Coordinates (Angstroms)
 Number     Number       Type             X           Y           Z
 ---------------------------------------------------------------------
      1          6           0        8.847852   38.092876   30.734839
      2          6           0        7.829324   38.795451   29.814806
      3          6           0        9.051354   36.592457   30.409459
      4          6           0        7.922096   38.511149   28.300846
      5          6           0       10.454004   36.255696   29.841118
      6          6           0        9.308168   38.777601   27.665132
      7          6           0       11.090025   37.228741   28.823656
      8          6           0       10.320606   37.611382   27.548966
      9          7           0        9.687554   36.387391   26.908923
     10          1           0        9.805648   38.620912   30.759616
     11          1           0        8.454231   38.141096   31.754840
     12          1           0        6.805108   38.629727   30.167223
     13          1           0        7.966401   39.880526   29.931819
     14          1           0        8.921014   36.027277   31.335587
     15          1           0        8.273338   36.249060   29.716625
     16          1           0        7.605273   37.475183   28.108438
     17          1           0        7.198810   39.153391   27.791394
     18          1           0       11.147716   36.038763   30.658358
     19          1           0       10.353724   35.278925   29.331743
     20          1           0        9.125337   39.157495   26.650011
     21          1           0        9.787651   39.616264   28.178774
     22          1           0       11.284925   38.166257   29.357891
     23          1           0       12.108159   36.898540   28.581495
     24          1           0       11.068276   37.942979   26.818945
     25          1           0        8.862785   36.078767   27.436285
     26          1           0       10.349045   35.604778   26.876177
     27          1           0        9.386678   36.579508   25.947734
 ---------------------------------------------------------------------
                    Distance matrix (angstroms):
                    1          2          3          4          5
     1  C    0.000000
     2  C    1.541905   0.000000
     3  C    1.548723   2.588465   0.000000
     4  C    2.637479   1.543214   3.066406   0.000000
     5  C    2.598787   3.652396   1.550435   3.724253   0.000000
     6  C    3.178654   2.609290   3.517405   1.548006   3.522480
     7  C    3.070292   3.750884   2.660040   3.457408   1.544853
     8  C    3.542687   3.569669   3.291144   2.669785   2.666391
     9  N    4.272167   4.206653   3.563784   3.092675   3.033571
    10  H    1.093987   2.197495   2.192304   3.099252   2.618826
    11  H    1.094378   2.140659   2.136559   3.514282   3.349053
    12  H    2.187052   1.095755   3.042165   2.178321   4.365410
    13  H    2.148834   1.099941   3.495234   2.130078   4.397248
    14  H    2.152430   3.341759   1.092763   4.046864   2.153061
    15  H    2.183228   2.586677   1.096927   2.691625   2.184226
    16  H    2.970443   2.169101   2.857456   1.100283   3.550295
    17  H    3.536651   2.149387   4.104213   1.093234   4.816046
    18  H    3.084576   4.395752   2.182491   4.698423   1.093699
    19  H    3.486353   4.355675   2.140796   4.174067   1.106165
    20  H    4.230394   3.438990   4.551740   2.142617   4.513198
    21  H    3.120481   2.680556   3.829034   2.171745   3.807996
    22  H    2.800124   3.542010   2.927709   3.541879   2.138734
    23  H    4.085699   4.840223   3.574800   4.494707   2.176265
    24  H    4.504107   4.493629   4.334014   3.523818   3.515364
    25  H    3.864883   3.755766   3.023111   2.747516   2.889032
    26  H    4.830475   5.016466   3.891477   4.045584   3.037365
    27  H    5.049455   4.721228   4.474327   3.378368   4.049997
                    6          7          8          9         10
     6  C    0.000000
     7  C    2.629859   0.000000
     8  C    1.548739   1.537287   0.000000
     9  N    2.535526   2.518133   1.519396   0.000000
    10  H    3.138131   2.708451   3.404791   4.453133   0.000000
    11  H    4.226116   4.046189   4.631774   5.299007   1.745572
    12  H    3.542264   4.704088   4.500113   4.894188   3.058471
    13  H    2.855635   4.244645   4.045897   4.929732   2.377962
    14  H    4.602870   3.529579   4.336675   4.506952   2.800226
    15  H    3.416580   3.113020   3.278105   3.146797   3.010230
    16  H    2.189216   3.565917   2.775715   2.637807   3.630852
    17  H    2.146287   4.462218   3.490297   3.824050   3.986161
    18  H    4.454725   2.187581   3.581279   4.038796   2.911854
    19  H    4.013915   2.145245   2.935941   2.746367   3.675335
    20  H    1.099189   3.507822   2.151105   2.838415   4.199952
    21  H    1.094115   2.795052   2.168006   3.471047   2.766188
    22  H    2.673339   1.096508   2.123677   3.422485   2.088015
    23  H    3.494358   1.097393   2.183942   2.986319   3.607261
    24  H    2.123819   2.128256   1.096311   2.081909   4.193174
    25  H    2.744894   2.864932   2.118218   1.026451   4.289058
    26  H    3.431134   2.641776   2.116581   1.025244   4.947064
    27  H    2.790561   3.404969   2.121540   1.025339   5.243765
                   11         12         13         14         15
    11  H    0.000000
    12  H    2.340703   0.000000
    13  H    2.566515   1.722938   0.000000
    14  H    2.204970   3.551743   4.210627   0.000000
    15  H    2.786905   2.833075   3.650762   1.757757   0.000000
    16  H    3.802685   2.492354   3.039870   3.773870   2.129778
    17  H    4.278986   2.464506   2.387329   5.029899   3.646405
    18  H    3.588446   5.080606   5.040612   2.327440   3.032019
    19  H    4.203748   4.951624   5.218634   2.574506   2.327510
    20  H    5.248116   4.246502   3.554739   5.638673   4.311498
    21  H    4.091745   3.717895   2.541644   4.857712   3.999524
    22  H    3.709289   4.575869   3.778983   3.751612   3.588034
    23  H    4.996524   5.799473   5.279183   4.301397   4.051690
    24  H    5.588876   5.464173   4.802676   5.355437   4.367790
    25  H    4.803127   4.266082   4.635145   3.900077   2.361440
    26  H    5.815890   5.704453   5.770265   4.701501   3.576562
    27  H    6.085268   5.354623   5.365337   5.436061   3.943762
                   16         17         18         19         20
    16  H    0.000000
    17  H    1.755595   0.000000
    18  H    4.595030   5.789150   0.000000
    19  H    3.724783   5.228542   1.722698   0.000000
    20  H    2.695882   2.239258   5.466566   4.872774   0.000000
    21  H    3.058096   2.658272   4.560332   4.523526   1.728076
    22  H    3.946968   4.486054   2.497253   3.033893   3.602636
    23  H    4.564240   5.459883   2.444387   2.502812   4.210787
    24  H    3.724784   4.169355   4.286425   3.731209   2.297520
    25  H    1.995772   3.514005   3.950223   2.540749   3.188373
    26  H    3.541916   4.832624   3.889873   2.477096   3.764360
    27  H    2.940116   3.848470   5.058027   3.752094   2.684680
                   21         22         23         24         25
    21  H    0.000000
    22  H    2.394716   0.000000
    23  H    3.596243   1.699297   0.000000
    24  H    2.507791   2.557936   2.297562   0.000000
    25  H    3.731026   3.730542   3.537794   2.953064   0.000000
    26  H    4.254873   3.687268   2.770634   2.446989   1.657514
    27  H    3.789486   4.213108   3.800650   2.333631   1.655593
                   26         27
    26  H    0.000000
    27  H    1.654768   0.000000
 Stoichiometry    C8H18N(1+)
 Framework group  C1[X(C8H18N)]
 Deg. of freedom    75
 Full point group                 C1      NOp   1
 Largest Abelian subgroup         C1      NOp   1
 Largest concise Abelian subgroup C1      NOp   1
                         Standard orientation:                         
 ---------------------------------------------------------------------
 Center     Atomic      Atomic             Coordinates (Angstroms)
 Number     Number       Type             X           Y           Z
 ---------------------------------------------------------------------
      1          6           0        1.914891    0.587617    0.305623
      2          6           0        2.011463   -0.915185   -0.025631
      3          6           0        1.028034    1.388051   -0.679940
      4          6           0        0.705368   -1.648222   -0.397493
      5          6           0       -0.283990    1.925617   -0.052673
      6          6           0       -0.436736   -1.524681    0.640129
      7          6           0       -1.062569    1.014059    0.921722
      8          6           0       -1.484283   -0.395715    0.476810
      9          7           0       -2.061006   -0.371641   -0.928671
     10          1           0        1.601030    0.756934    1.339853
     11          1           0        2.923698    1.004688    0.228012
     12          1           0        2.776802   -1.098895   -0.787986
     13          1           0        2.408584   -1.428198    0.862616
     14          1           0        1.606641    2.245674   -1.031831
     15          1           0        0.799546    0.776797   -1.561649
     16          1           0        0.365320   -1.300708   -1.384521
     17          1           0        0.934253   -2.711490   -0.508096
     18          1           0       -0.112154    2.911123    0.389400
     19          1           0       -0.962437    2.145253   -0.898292
     20          1           0       -0.978921   -2.480814    0.632443
     21          1           0       -0.009008   -1.471516    1.645769
     22          1           0       -0.430204    0.880315    1.807474
     23          1           0       -1.915046    1.562871    1.341672
     24          1           0       -2.329727   -0.685243    1.111865
     25          1           0       -1.320433   -0.261138   -1.630770
     26          1           0       -2.719763    0.405511   -1.043566
     27          1           0       -2.564205   -1.238927   -1.142972
 ---------------------------------------------------------------------
 Rotational constants (GHZ):           1.8842541           1.5170250           1.0632678
 Standard basis: 6-31G(d,p) (6D, 7F)
 There are   225 symmetry adapted cartesian basis functions of A   symmetry.
 There are   225 symmetry adapted basis functions of A   symmetry.
   225 basis functions,   378 primitive gaussians,   225 cartesian basis functions
    36 alpha electrons       36 beta electrons
       nuclear repulsion energy       515.8634933458 Hartrees.
 NAtoms=   27 NActive=   27 NUniq=   27 SFac= 1.00D+00 NAtFMM=   60 NAOKFM=F Big=F
 Integral buffers will be    131072 words long.
 Raffenetti 2 integral format.
 Two-electron integral symmetry is turned on.
 One-electron integrals computed using PRISM.
 NBasis=   225 RedAO= T EigKep=  3.03D-03  NBF=   225
 NBsUse=   225 1.00D-06 EigRej= -1.00D+00 NBFU=   225
 Initial guess from the checkpoint file:  "G7.chk"
 B after Tr=     0.000000   -0.000000    0.000000
         Rot=    0.999998   -0.000211   -0.001844   -0.001085 Ang=  -0.25 deg.
 ExpMin= 1.61D-01 ExpMax= 4.17D+03 ExpMxC= 6.27D+02 IAcc=2 IRadAn=         4 AccDes= 0.00D+00
 Harris functional with IExCor=  402 and IRadAn=       4 diagonalized for initial guess.
 HarFok:  IExCor=  402 AccDes= 0.00D+00 IRadAn=         4 IDoV= 1 UseB2=F ITyADJ=14
 ICtDFT=  3500011 ScaDFX=  1.000000  1.000000  1.000000  1.000000
 FoFCou: FMM=F IPFlag=           0 FMFlag=      100000 FMFlg1=           0
         NFxFlg=           0 DoJE=T BraDBF=F KetDBF=T FulRan=T
         wScrn=  0.000000 ICntrl=       500 IOpCl=  0 I1Cent=   200000004 NGrid=           0
[...]
 ---------------------------------------------------------------------
 Rotational constants (GHZ):           1.8833970           1.5151958           1.0634771

 **********************************************************************

            Population analysis using the SCF density.

 **********************************************************************

 Orbital symmetries:
       Occupied  (A) (A) (A) (A) (A) (A) (A) (A) (A) (A) (A) (A)
                 (A) (A) (A) (A) (A) (A) (A) (A) (A) (A) (A) (A)
                 (A) (A) (A) (A) (A) (A) (A) (A) (A) (A) (A) (A)
       Virtual   (A) (A) (A) (A) (A) (A) (A) (A) (A) (A) (A) (A)
                 (A) (A) (A) (A) (A) (A) (A) (A) (A) (A) (A) (A)
                 (A) (A) (A) (A) (A) (A) (A) (A) (A) (A) (A) (A)
                 (A) (A) (A) (A) (A) (A) (A) (A) (A) (A) (A) (A)
                 (A) (A) (A) (A) (A) (A) (A) (A) (A) (A) (A) (A)
                 (A) (A) (A) (A) (A) (A) (A) (A) (A) (A) (A) (A)
                 (A) (A) (A) (A) (A) (A) (A) (A) (A) (A) (A) (A)
                 (A) (A) (A) (A) (A) (A) (A) (A) (A) (A) (A) (A)
                 (A) (A) (A) (A) (A) (A) (A) (A) (A) (A) (A) (A)
                 (A) (A) (A) (A) (A) (A) (A) (A) (A) (A) (A) (A)
                 (A) (A) (A) (A) (A) (A) (A) (A) (A) (A) (A) (A)
                 (A) (A) (A) (A) (A) (A) (A) (A) (A) (A) (A) (A)
                 (A) (A) (A) (A) (A) (A) (A) (A) (A) (A) (A) (A)
                 (A) (A) (A) (A) (A) (A) (A) (A) (A) (A) (A) (A)
                 (A) (A) (A) (A) (A) (A) (A) (A) (A) (A) (A) (A)
                 (A) (A) (A) (A) (A) (A) (A) (A) (A)
 The electronic state is 1-A.
 Alpha  occ. eigenvalues --  -14.64758 -10.42469 -10.34863 -10.34576 -10.33026
 Alpha  occ. eigenvalues --  -10.32996 -10.31337 -10.30491 -10.30150  -1.18929
 Alpha  occ. eigenvalues --   -0.97653  -0.92245  -0.92002  -0.83438  -0.82760
 Alpha  occ. eigenvalues --   -0.77256  -0.76611  -0.76047  -0.72537  -0.69070
 Alpha  occ. eigenvalues --   -0.63758  -0.62746  -0.60207  -0.59159  -0.57209
 Alpha  occ. eigenvalues --   -0.56989  -0.54359  -0.52270  -0.51174  -0.50356
 Alpha  occ. eigenvalues --   -0.48821  -0.47896  -0.47458  -0.44778  -0.43713
 Alpha  occ. eigenvalues --   -0.43503
 Alpha virt. eigenvalues --   -0.15563  -0.10054  -0.08906  -0.06361  -0.05479
 Alpha virt. eigenvalues --   -0.02948  -0.01967  -0.01227   0.00137   0.00705
 Alpha virt. eigenvalues --    0.02067   0.02941   0.03478   0.03788   0.04912
 Alpha virt. eigenvalues --    0.05050   0.05793   0.07143   0.07600   0.08728
 Alpha virt. eigenvalues --    0.09428   0.09724   0.13988   0.14727   0.15286
 Alpha virt. eigenvalues --    0.17841   0.20644   0.30841   0.33503   0.35259
 Alpha virt. eigenvalues --    0.36236   0.37293   0.40346   0.42226   0.42328
 Alpha virt. eigenvalues --    0.44559   0.46043   0.48614   0.49763   0.50761
 Alpha virt. eigenvalues --    0.51886   0.53465   0.55635   0.56906   0.57530
 Alpha virt. eigenvalues --    0.58663   0.60194   0.61429   0.62066   0.62560
 Alpha virt. eigenvalues --    0.65906   0.67071   0.67929   0.69485   0.70220
 Alpha virt. eigenvalues --    0.71056   0.72522   0.73726   0.74739   0.76259
 Alpha virt. eigenvalues --    0.77641   0.79538   0.80280   0.80427   0.81154
 Alpha virt. eigenvalues --    0.81819   0.82745   0.83267   0.84570   0.85380
 Alpha virt. eigenvalues --    0.87427   0.94396   1.01431   1.04377   1.05272
 Alpha virt. eigenvalues --    1.13404   1.13867   1.23085   1.24144   1.28185
 Alpha virt. eigenvalues --    1.31151   1.32908   1.40644   1.41452   1.43174
 Alpha virt. eigenvalues --    1.46579   1.49105   1.51023   1.54438   1.58535
 Alpha virt. eigenvalues --    1.59073   1.61619   1.64179   1.64851   1.66035
 Alpha virt. eigenvalues --    1.67377   1.69084   1.71519   1.73091   1.74595
 Alpha virt. eigenvalues --    1.76987   1.78372   1.80029   1.81576   1.82647
 Alpha virt. eigenvalues --    1.83583   1.88518   1.89539   1.92283   1.95006
 Alpha virt. eigenvalues --    1.97983   1.98871   1.99762   2.00520   2.03668
 Alpha virt. eigenvalues --    2.06046   2.06627   2.09484   2.10900   2.11328
 Alpha virt. eigenvalues --    2.12908   2.14224   2.14791   2.16532   2.17073
 Alpha virt. eigenvalues --    2.18103   2.19589   2.21376   2.22700   2.23972
 Alpha virt. eigenvalues --    2.28123   2.28975   2.30243   2.33380   2.37880
 Alpha virt. eigenvalues --    2.38673   2.42023   2.44702   2.47938   2.49006
 Alpha virt. eigenvalues --    2.50726   2.51952   2.53628   2.54100   2.56189
 Alpha virt. eigenvalues --    2.58612   2.59370   2.59809   2.63361   2.64416
 Alpha virt. eigenvalues --    2.66323   2.68993   2.70708   2.71330   2.72585
 Alpha virt. eigenvalues --    2.73715   2.76918   2.77810   2.78900   2.80239
 Alpha virt. eigenvalues --    2.82601   2.84271   2.97949   3.10848   3.13167
 Alpha virt. eigenvalues --    3.13959   3.16645   3.17280   3.18222   3.20445
 Alpha virt. eigenvalues --    3.22568   3.23429   3.26602   3.30419   3.32979
 Alpha virt. eigenvalues --    3.33388   3.37264   3.39417   3.41473   3.46225
 Alpha virt. eigenvalues --    3.86287   4.10297   4.20258   4.26183   4.44117
 Alpha virt. eigenvalues --    4.55000   4.57106   4.60400   4.63694
          Condensed to atoms (all electrons):
               1          2          3          4          5          6
     1  C    4.926781   0.370044   0.356843  -0.050418  -0.041631   0.000588
     2  C    0.370044   4.905224  -0.041631   0.370232  -0.000053  -0.043743
     3  C    0.356843  -0.041631   4.955309  -0.008170   0.356978  -0.001111
     4  C   -0.050418   0.370232  -0.008170   4.962184   0.002617   0.344597
     5  C   -0.041631  -0.000053   0.356978   0.002617   4.956748  -0.001344
     6  C    0.000588  -0.043743  -0.001111   0.344597  -0.001344   4.999805
     7  C   -0.007316   0.002933  -0.049840  -0.001334   0.359894  -0.044471
     8  C   -0.001820  -0.000389   0.002693  -0.036026  -0.042805   0.354828
     9  N    0.000272   0.000182  -0.001320  -0.007279  -0.006283  -0.047124
    10  H    0.390891  -0.035371  -0.047857  -0.002529  -0.009641   0.003305
    11  H    0.390881  -0.029517  -0.036669   0.004874   0.004177  -0.000171
    12  H   -0.032211   0.389205  -0.002576  -0.032216  -0.000020   0.004948
    13  H   -0.034353   0.386193   0.004932  -0.040422  -0.000150  -0.008453
    14  H   -0.033160   0.003913   0.393583   0.000022  -0.028550   0.000038
    15  H   -0.046520  -0.010444   0.379366  -0.000971  -0.042326  -0.000451
    16  H   -0.004723  -0.039291   0.001380   0.366033  -0.000703  -0.051624
    17  H    0.004114  -0.028701   0.000261   0.390247  -0.000016  -0.031018
    18  H   -0.001624  -0.000046  -0.029758  -0.000027   0.394014  -0.000060
    19  H    0.005223  -0.000151  -0.042640  -0.000050   0.369093   0.000031
    20  H   -0.000036   0.004117  -0.000038  -0.036600  -0.000104   0.376875
    21  H   -0.000180  -0.005732   0.000206  -0.033318  -0.000035   0.389395
    22  H    0.002612  -0.000313  -0.006395  -0.000349  -0.032896  -0.008160
    23  H    0.000261  -0.000019   0.004164  -0.000075  -0.029541   0.004288
    24  H   -0.000049  -0.000086  -0.000058   0.003883   0.003723  -0.037850
    25  H   -0.000461  -0.000684   0.002371   0.006566   0.002759  -0.005095
    26  H    0.000020  -0.000017   0.000031   0.000190   0.000474   0.003619
    27  H   -0.000001   0.000022  -0.000046  -0.000165   0.000189  -0.000037
               7          8          9         10         11         12
     1  C   -0.007316  -0.001820   0.000272   0.390891   0.390881  -0.032211
     2  C    0.002933  -0.000389   0.000182  -0.035371  -0.029517   0.389205
     3  C   -0.049840   0.002693  -0.001320  -0.047857  -0.036669  -0.002576
     4  C   -0.001334  -0.036026  -0.007279  -0.002529   0.004874  -0.032216
     5  C    0.359894  -0.042805  -0.006283  -0.009641   0.004177  -0.000020
     6  C   -0.044471   0.354828  -0.047124   0.003305  -0.000171   0.004948
     7  C    4.998576   0.346824  -0.045349  -0.001891   0.000038  -0.000047
     8  C    0.346824   5.059762   0.153074  -0.000754   0.000073  -0.000108
     9  N   -0.045349   0.153074   6.550873  -0.000015  -0.000003   0.000000
    10  H   -0.001891  -0.000754  -0.000015   0.618531  -0.031301   0.004860
    11  H    0.000038   0.000073  -0.000003  -0.031301   0.578714  -0.008155
    12  H   -0.000047  -0.000108   0.000000   0.004860  -0.008155   0.585981
    13  H   -0.000033  -0.000044  -0.000004  -0.007804  -0.000085  -0.034353
    14  H    0.004362  -0.000198   0.000038   0.002754  -0.010908   0.000080
    15  H   -0.002191   0.003389  -0.002127   0.004923   0.003199   0.001619
    16  H    0.000014  -0.012933  -0.002912  -0.000208  -0.000027  -0.005284
    17  H   -0.000066   0.003954   0.000292  -0.000083  -0.000129  -0.002070
    18  H   -0.025105   0.004778  -0.000082   0.001113   0.000115  -0.000002
    19  H   -0.046185  -0.013353   0.003578   0.000278  -0.000182   0.000009
    20  H    0.004933  -0.035288  -0.001853  -0.000013   0.000000  -0.000177
    21  H   -0.006603  -0.029929   0.003434   0.000036  -0.000062   0.000102
    22  H    0.388804  -0.038405   0.004124   0.005852  -0.000192   0.000017
    23  H    0.378595  -0.031373  -0.000732  -0.000073  -0.000007   0.000000
    24  H   -0.036309   0.399067  -0.041793   0.000025   0.000001   0.000002
    25  H   -0.004039  -0.019450   0.317238   0.000034   0.000009   0.000015
    26  H   -0.001256  -0.020578   0.331826  -0.000001  -0.000000   0.000000
    27  H    0.003806  -0.017764   0.331020   0.000000  -0.000000  -0.000001
              13         14         15         16         17         18
     1  C   -0.034353  -0.033160  -0.046520  -0.004723   0.004114  -0.001624
     2  C    0.386193   0.003913  -0.010444  -0.039291  -0.028701  -0.000046
     3  C    0.004932   0.393583   0.379366   0.001380   0.000261  -0.029758
     4  C   -0.040422   0.000022  -0.000971   0.366033   0.390247  -0.000027
     5  C   -0.000150  -0.028550  -0.042326  -0.000703  -0.000016   0.394014
     6  C   -0.008453   0.000038  -0.000451  -0.051624  -0.031018  -0.000060
     7  C   -0.000033   0.004362  -0.002191   0.000014  -0.000066  -0.025105
     8  C   -0.000044  -0.000198   0.003389  -0.012933   0.003954   0.004778
     9  N   -0.000004   0.000038  -0.002127  -0.002912   0.000292  -0.000082
    10  H   -0.007804   0.002754   0.004923  -0.000208  -0.000083   0.001113
    11  H   -0.000085  -0.010908   0.003199  -0.000027  -0.000129   0.000115
    12  H   -0.034353   0.000080   0.001619  -0.005284  -0.002070  -0.000002
    13  H    0.605692  -0.000154   0.000193   0.006302  -0.004817   0.000006
    14  H   -0.000154   0.564901  -0.031267  -0.000064  -0.000006  -0.008287
    15  H    0.000193  -0.031267   0.669692   0.001572  -0.000096   0.005068
    16  H    0.006302  -0.000064   0.001572   0.696172  -0.032002   0.000014
    17  H   -0.004817  -0.000006  -0.000096  -0.032002   0.563520   0.000000
    18  H    0.000006  -0.008287   0.005068   0.000014   0.000000   0.545784
    19  H    0.000004   0.000398  -0.009473  -0.000095  -0.000001  -0.033258
    20  H    0.000077   0.000001   0.000022   0.001591  -0.009950   0.000002
    21  H    0.004556  -0.000001  -0.000025   0.005132   0.000576  -0.000010
    22  H    0.000018   0.000104  -0.000138   0.000031  -0.000015  -0.004204
    23  H   -0.000001  -0.000117  -0.000108  -0.000014   0.000002  -0.003272
    24  H   -0.000002   0.000001  -0.000005   0.000053  -0.000172  -0.000118
    25  H    0.000028  -0.000125   0.005715   0.012202  -0.000538  -0.000042
    26  H    0.000000   0.000000  -0.000162   0.000143   0.000001  -0.000107
    27  H    0.000001   0.000000   0.000026   0.000504  -0.000067   0.000001
              19         20         21         22         23         24
     1  C    0.005223  -0.000036  -0.000180   0.002612   0.000261  -0.000049
     2  C   -0.000151   0.004117  -0.005732  -0.000313  -0.000019  -0.000086
     3  C   -0.042640  -0.000038   0.000206  -0.006395   0.004164  -0.000058
     4  C   -0.000050  -0.036600  -0.033318  -0.000349  -0.000075   0.003883
     5  C    0.369093  -0.000104  -0.000035  -0.032896  -0.029541   0.003723
     6  C    0.000031   0.376875   0.389395  -0.008160   0.004288  -0.037850
     7  C   -0.046185   0.004933  -0.006603   0.388804   0.378595  -0.036309
     8  C   -0.013353  -0.035288  -0.029929  -0.038405  -0.031373   0.399067
     9  N    0.003578  -0.001853   0.003434   0.004124  -0.000732  -0.041793
    10  H    0.000278  -0.000013   0.000036   0.005852  -0.000073   0.000025
    11  H   -0.000182   0.000000  -0.000062  -0.000192  -0.000007   0.000001
    12  H    0.000009  -0.000177   0.000102   0.000017   0.000000   0.000002
    13  H    0.000004   0.000077   0.004556   0.000018  -0.000001  -0.000002
    14  H    0.000398   0.000001  -0.000001   0.000104  -0.000117   0.000001
    15  H   -0.009473   0.000022  -0.000025  -0.000138  -0.000108  -0.000005
    16  H   -0.000095   0.001591   0.005132   0.000031  -0.000014   0.000053
    17  H   -0.000001  -0.009950   0.000576  -0.000015   0.000002  -0.000172
    18  H   -0.033258   0.000002  -0.000010  -0.004204  -0.003272  -0.000118
    19  H    0.686780   0.000003   0.000008   0.006330  -0.003812  -0.000031
    20  H    0.000003   0.603738  -0.028951   0.000243  -0.000208  -0.007875
    21  H    0.000008  -0.028951   0.538537   0.003619   0.000159  -0.000828
    22  H    0.006330   0.000243   0.003619   0.557745  -0.032381   0.000301
    23  H   -0.003812  -0.000208   0.000159  -0.032381   0.582317  -0.007835
    24  H   -0.000031  -0.007875  -0.000828   0.000301  -0.007835   0.552099
    25  H    0.000340  -0.000266   0.000151   0.000051  -0.000225   0.004625
    26  H    0.002818  -0.000168  -0.000079  -0.000043   0.002320  -0.001930
    27  H    0.000083   0.003215  -0.000103  -0.000091  -0.000189  -0.004406
              25         26         27
     1  C   -0.000461   0.000020  -0.000001
     2  C   -0.000684  -0.000017   0.000022
     3  C    0.002371   0.000031  -0.000046
     4  C    0.006566   0.000190  -0.000165
     5  C    0.002759   0.000474   0.000189
     6  C   -0.005095   0.003619  -0.000037
     7  C   -0.004039  -0.001256   0.003806
     8  C   -0.019450  -0.020578  -0.017764
     9  N    0.317238   0.331826   0.331020
    10  H    0.000034  -0.000001   0.000000
    11  H    0.000009  -0.000000  -0.000000
    12  H    0.000015   0.000000  -0.000001
    13  H    0.000028   0.000000   0.000001
    14  H   -0.000125   0.000000   0.000000
    15  H    0.005715  -0.000162   0.000026
    16  H    0.012202   0.000143   0.000504
    17  H   -0.000538   0.000001  -0.000067
    18  H   -0.000042  -0.000107   0.000001
    19  H    0.000340   0.002818   0.000083
    20  H   -0.000266  -0.000168   0.003215
    21  H    0.000151  -0.000079  -0.000103
    22  H    0.000051  -0.000043  -0.000091
    23  H   -0.000225   0.002320  -0.000189
    24  H    0.004625  -0.001930  -0.004406
    25  H    0.353725  -0.015719  -0.015938
    26  H   -0.015719   0.349323  -0.015389
    27  H   -0.015938  -0.015389   0.352320
 Mulliken charges:
               1
     1  C   -0.194030
     2  C   -0.195877
     3  C   -0.190006
     4  C   -0.201494
     5  C   -0.214567
     6  C   -0.201603
     7  C   -0.216745
     8  C   -0.027225
     9  N   -0.539076
    10  H    0.104938
    11  H    0.135329
    12  H    0.130381
    13  H    0.122673
    14  H    0.142640
    15  H    0.071521
    16  H    0.058736
    17  H    0.146779
    18  H    0.155106
    19  H    0.074255
    20  H    0.126707
    21  H    0.159943
    22  H    0.153731
    23  H    0.137874
    24  H    0.175567
    25  H    0.356750
    26  H    0.364683
    27  H    0.363009
 Sum of Mulliken charges =   1.00000
 Mulliken charges with hydrogens summed into heavy atoms:
               1
     1  C    0.046238
     2  C    0.057178
     3  C    0.024155
     4  C    0.004021
     5  C    0.014794
     6  C    0.085047
     7  C    0.074860
     8  C    0.148342
     9  N    0.545366
 Electronic spatial extent (au):  <R**2>=           1283.4646
 Charge=              1.0000 electrons
 Dipole moment (field-independent basis, Debye):
    X=             -6.6898    Y=             -1.3132    Z=             -2.3372  Tot=              7.2069
 Quadrupole moment (field-independent basis, Debye-Ang):
   XX=            -33.7398   YY=            -48.6685   ZZ=            -49.3305
   XY=              3.1221   XZ=              6.6568   YZ=              1.3332
 Traceless Quadrupole moment (field-independent basis, Debye-Ang):
   XX=             10.1731   YY=             -4.7556   ZZ=             -5.4176
   XY=              3.1221   XZ=              6.6568   YZ=              1.3332
 Octapole moment (field-independent basis, Debye-Ang**2):
  XXX=            -52.5727  YYY=             -3.5259  ZZZ=             -7.0605  XYY=             -6.1491
  XXY=             -7.3931  XXZ=            -19.6324  XZZ=            -15.4648  YZZ=             -2.9301
  YYZ=             -1.0925  XYZ=             -4.0974
 Hexadecapole moment (field-independent basis, Debye-Ang**3):
 XXXX=           -622.4528 YYYY=           -599.8166 ZZZZ=           -231.7903 XXXY=             24.2178
 XXXZ=             50.6659 YYYX=             14.1293 YYYZ=              6.7506 ZZZX=             23.2316
 ZZZY=              4.4424 XXYY=           -210.8783 XXZZ=           -143.3815 YYZZ=           -143.9839
 XXYZ=              7.6527 YYXZ=              5.5865 ZZXY=              4.2691
 N-N= 5.157505079383D+02 E-N=-1.875035577694D+03  KE= 3.664957136859D+02
 1\1\GINC-CPU198\FOpt\RB3LYP\6-31G(d,p)\C8H18N1(1+)\FEBRERMA\05-Feb-202
 4\0\\# B3LYP/6-31G** opt=Modredundant\\G7\\1,1\C,8.8484450172,38.09293
 8294,30.7345361155\C,7.83078059,38.7957986727,29.8146031776\C,9.050285
 5333,36.5915507544,30.4100345985\C,7.9219542089,38.5111168239,28.30107
 56441\C,10.4539992335,36.2562545405,29.8415469515\C,9.3096226157,38.77
 68788758,27.6670725615\C,11.0885161897,37.2314890645,28.823631431\C,10
 .3211883601,37.6141334412,27.5508115462\N,9.6851087568,36.3810020646,2
 6.9040353028\H,9.8064801902,38.6197368884,30.7586800497\H,8.4552962704
 ,38.1422716927,31.7542216598\H,6.8071642277,38.6313977694,30.167418195
 3\H,7.9691743308,39.8800083533,29.9309196747\H,8.9197501894,36.0265908
 747,31.3359517396\H,8.2722861184,36.2477774513,29.7178399377\H,7.60380
 54737,37.4753306351,28.1082221543\H,7.1994250088,39.1536310799,27.7915
 034352\H,11.1475341334,36.0401285576,30.657946444\H,10.3552578277,35.2
 808360059,29.3327174209\H,9.1278852921,39.1570044332,26.6526013828\H,9
 .7883306754,39.6148051289,28.1819626342\H,11.2816766162,38.1683352791,
 29.3583417766\H,12.1062395602,36.9028716968,28.5816365609\H,11.0677139
 285,37.9465591654,26.8232808025\H,8.8615503807,36.0761377612,27.434276
 0646\H,10.3498419249,35.6014035336,26.872727266\H,9.3857873463,36.5762
 031619,25.9431074727\\Version=ES64L-G16RevA.03\State=1-A\HF=-370.22992
 55\RMSD=3.227e-09\RMSF=5.985e-03\Dipole=0.5382891,-1.2723714,-2.476077
 8\Quadrupole=-4.7438226,-1.7626363,6.5064589,-1.9699702,-1.8670007,5.7
 000809\PG=C01 [X(C8H18N1)]\\@


 CHARLIE BROWN.."I CAN'T GET THAT STUPID KITE IN THE
 AIR... I CAN'T... I C A N N O T..."
 LUCY.."OH COME NOW CHARLIE BROWN...THAT'S NO WAY TO TALK...
 THE TROUBLE WITH YOU IS YOU DON'T BELIEVE IN YOURSELF... YOU
 DON'T BELIEVE IN YOUR OWN ABILITIES...  YOU'VE GOT TO SAY TO
 YOURSELF...'I BELIEVE I CAN FLY THIS KITE.'... GO AHEAD SAY
 IT...."
 CHARLIE BROWN.."I BELIEVE THAT I CAN FLY THIS STUPID
 KITE.....I BELIEVE THAT I CAN FLY THIS KITE........
 I  A C T U A L L Y  B E L I E V E  T H A T  I  C A N ******"
 LUCY.."I'LL BET YOU TEN-TO-ONE YOU'RE WRONG......."    SCHULZ
 Job cpu time:       0 days  0 hours 18 minutes 30.7 seconds.
 Elapsed time:       0 days  0 hours  2 minutes 21.1 seconds.
 File lengths (MBytes):  RWF=     34 Int=      0 D2E=      0 Chk=      6 Scr=      1
 Normal termination of Gaussian 16 at Mon Feb  5 15:24:43 2024.
