 Entering Gaussian System, Link 0=g16
 Initial command:
 /opt/ebsofts/Gaussian/g16/l1.exe "/scratch/Gau-2534026.inp" -scrdir="/scratch/"
 Entering Link 1 = /opt/ebsofts/Gaussian/g16/l1.exe PID=   2534030.
  
 Copyright (c) 1988,1990,1992,1993,1995,1998,2003,2009,2016,
            Gaussian, Inc.  All Rights Reserved.
  
 This is part of the Gaussian(R) 16 program.  It is based on
 the Gaussian(R) 09 system (copyright 2009, Gaussian, Inc.),
 the Gaussian(R) 03 system (copyright 2003, Gaussian, Inc.),
 the Gaussian(R) 98 system (copyright 1998, Gaussian, Inc.),
 the Gaussian(R) 94 system (copyright 1995, Gaussian, Inc.),
 the Gaussian 92(TM) system (copyright 1992, Gaussian, Inc.),
 the Gaussian 90(TM) system (copyright 1990, Gaussian, Inc.),
 the Gaussian 88(TM) system (copyright 1988, Gaussian, Inc.),
 the Gaussian 86(TM) system (copyright 1986, Carnegie Mellon
 University), and the Gaussian 82(TM) system (copyright 1983,
 Carnegie Mellon University). Gaussian is a federally registered
 trademark of Gaussian, Inc.
  
 This software contains proprietary and confidential information,
 including trade secrets, belonging to Gaussian, Inc.
  
 This software is provided under written license and may be
 used, copied, transmitted, or stored only in accord with that
 written license.
  
 The following legend is applicable only to US Government
 contracts under FAR:
  
                    RESTRICTED RIGHTS LEGEND
  
 Use, reproduction and disclosure by the US Government is
 subject to restrictions as set forth in subparagraphs (a)
 and (c) of the Commercial Computer Software - Restricted
 Rights clause in FAR 52.227-19.
  
 Gaussian, Inc.
 340 Quinnipiac St., Bldg. 40, Wallingford CT 06492
  
  
 ---------------------------------------------------------------
 Warning -- This program may not be used in any manner that
 competes with the business of Gaussian, Inc. or will provide
 assistance to any competitor of Gaussian, Inc.  The licensee
 of this program is prohibited from giving any competitor of
 Gaussian, Inc. access to this program.  By using this program,
 the user acknowledges that Gaussian, Inc. is engaged in the
 business of creating and licensing software in the field of
 computational chemistry and represents and warrants to the
 licensee that it is not a competitor of Gaussian, Inc. and that
 it will not use this program in any manner prohibited above.
 ---------------------------------------------------------------
  

 Cite this work as:
 Gaussian 16, Revision A.03,
 M. J. Frisch, G. W. Trucks, H. B. Schlegel, G. E. Scuseria, 
 M. A. Robb, J. R. Cheeseman, G. Scalmani, V. Barone, 
 G. A. Petersson, H. Nakatsuji, X. Li, M. Caricato, A. V. Marenich, 
 J. Bloino, B. G. Janesko, R. Gomperts, B. Mennucci, H. P. Hratchian, 
 J. V. Ortiz, A. F. Izmaylov, J. L. Sonnenberg, D. Williams-Young, 
 F. Ding, F. Lipparini, F. Egidi, J. Goings, B. Peng, A. Petrone, 
 T. Henderson, D. Ranasinghe, V. G. Zakrzewski, J. Gao, N. Rega, 
 G. Zheng, W. Liang, M. Hada, M. Ehara, K. Toyota, R. Fukuda, 
 J. Hasegawa, M. Ishida, T. Nakajima, Y. Honda, O. Kitao, H. Nakai, 
 T. Vreven, K. Throssell, J. A. Montgomery, Jr., J. E. Peralta, 
 F. Ogliaro, M. J. Bearpark, J. J. Heyd, E. N. Brothers, K. N. Kudin, 
 V. N. Staroverov, T. A. Keith, R. Kobayashi, J. Normand, 
 K. Raghavachari, A. P. Rendell, J. C. Burant, S. S. Iyengar, 
 J. Tomasi, M. Cossi, J. M. Millam, M. Klene, C. Adamo, R. Cammi, 
 J. W. Ochterski, R. L. Martin, K. Morokuma, O. Farkas, 
 J. B. Foresman, and D. J. Fox, Gaussian, Inc., Wallingford CT, 2016.
 
 ******************************************
 Gaussian 16:  ES64L-G16RevA.03 25-Dec-2016
                 5-Feb-2024 
 ******************************************
 %Chk=G7.chk
 %nprocshared=8
 Will use up to    8 processors via shared memory.
 %mem=1GB
 ----------------------------------------------------------------------
 # HF/6-31G** SCRF=(Solvent=Water) POP=MK iop(6/50=1) geom=allcheck gue
 ss=read
 ----------------------------------------------------------------------
 1/29=7,38=1,172=1/1;
 2/12=2,40=1/2;
 3/5=1,6=6,7=101,11=9,14=-4,25=1,30=1,70=2201,72=1,116=-2/1,2,3;
 4/5=1/1;
 5/5=2,38=6,53=1/2;
 6/7=2,8=2,9=2,10=2,15=8,20=1,28=1,50=1/1,2;
 99/5=1,9=1/99;
 Structure from the checkpoint file:  "G7.chk"
 --
 G7
 --
 Charge =  1 Multiplicity = 1
 Redundant internal coordinates found in file.  (old form).
 C,0,8.8484450172,38.092938294,30.7345361155
 C,0,7.83078059,38.7957986727,29.8146031776
 C,0,9.0502855333,36.5915507544,30.4100345985
 C,0,7.9219542089,38.5111168239,28.3010756441
 C,0,10.4539992335,36.2562545405,29.8415469515
 C,0,9.3096226157,38.7768788758,27.6670725615
 C,0,11.0885161897,37.2314890645,28.823631431
 C,0,10.3211883601,37.6141334412,27.5508115462
 N,0,9.6851087568,36.3810020646,26.9040353028
 H,0,9.8064801902,38.6197368884,30.7586800497
 H,0,8.4552962704,38.1422716927,31.7542216598
 H,0,6.8071642277,38.6313977694,30.1674181953
 H,0,7.9691743308,39.8800083533,29.9309196747
 H,0,8.9197501894,36.0265908747,31.3359517396
 H,0,8.2722861184,36.2477774513,29.7178399377
 H,0,7.6038054737,37.4753306351,28.1082221543
 H,0,7.1994250088,39.1536310799,27.7915034352
 H,0,11.1475341334,36.0401285576,30.657946444
 H,0,10.3552578277,35.2808360059,29.3327174209
 H,0,9.1278852921,39.1570044332,26.6526013828
 H,0,9.7883306754,39.6148051289,28.1819626342
 H,0,11.2816766162,38.1683352791,29.3583417766
 H,0,12.1062395602,36.9028716968,28.5816365609
 H,0,11.0677139285,37.9465591654,26.8232808025
 H,0,8.8615503807,36.0761377612,27.4342760646
 H,0,10.3498419249,35.6014035336,26.872727266
 H,0,9.3857873463,36.5762031619,25.9431074727
 Recover connectivity data from disk.
                           ----------------------------
                           !    Current Parameters    !
                           ! (Angstroms and Degrees)  !
 --------------------------                            --------------------------
 ! Name  Definition              Value                                          !
 --------------------------------------------------------------------------------
 ! R1    R(1,2)                  1.5414                                         !
 ! R2    R(1,3)                  1.5493                                         !
 ! R3    R(1,10)                 1.0936                                         !
 ! R4    R(1,11)                 1.094                                          !
 ! R5    R(2,4)                  1.5428                                         !
 ! R6    R(2,12)                 1.0951                                         !
 ! R7    R(2,13)                 1.0992                                         !
 ! R8    R(3,5)                  1.5511                                         !
 ! R9    R(3,14)                 1.0925                                         !
 ! R10   R(3,15)                 1.0966                                         !
 ! R11   R(4,6)                  1.5486                                         !
 ! R12   R(4,16)                 1.1006                                         !
 ! R13   R(4,17)                 1.0929                                         !
 ! R14   R(5,7)                  1.5459                                         !
 ! R15   R(5,18)                 1.0928                                         !
 ! R16   R(5,19)                 1.1046                                         !
 ! R17   R(6,8)                  1.5456                                         !
 ! R18   R(6,20)                 1.0985                                         !
 ! R19   R(6,21)                 1.0938                                         !
 ! R20   R(7,8)                  1.5347                                         !
 ! R21   R(7,22)                 1.0959                                         !
 ! R22   R(7,23)                 1.0965                                         !
 ! R23   R(8,9)                  1.5309                                         !
 ! R24   R(8,24)                 1.0941                                         !
 ! R25   R(9,25)                 1.0258                                         !
 ! R26   R(9,26)                 1.025                                          !
 ! R27   R(9,27)                 1.0252                                         !
 ! A1    A(2,1,3)              113.7599                                         !
 ! A2    A(2,1,10)             111.8331                                         !
 ! A3    A(2,1,11)             107.3651                                         !
 ! A4    A(3,1,10)             110.9358                                         !
 ! A5    A(3,1,11)             106.6041                                         !
 ! A6    A(10,1,11)            105.815                                          !
 ! A7    A(1,2,4)              117.5385                                         !
 ! A8    A(1,2,12)             110.8781                                         !
 ! A9    A(1,2,13)             107.6677                                         !
 ! A10   A(4,2,12)             110.0964                                         !
 ! A11   A(4,2,13)             106.1641                                         !
 ! A12   A(12,2,13)            103.3954                                         !
 ! A13   A(1,3,5)              113.8377                                         !
 ! A14   A(1,3,14)             107.9426                                         !
 ! A15   A(1,3,15)             110.0949                                         !
 ! A16   A(5,3,14)             107.8762                                         !
 ! A17   A(5,3,15)             110.0551                                         !
 ! A18   A(14,3,15)            106.7432                                         !
 ! A19   A(2,4,6)              115.0197                                         !
 ! A20   A(2,4,16)             109.1771                                         !
 ! A21   A(2,4,17)             108.0504                                         !
 ! A22   A(6,4,16)             110.4141                                         !
 ! A23   A(6,4,17)             107.4944                                         !
 ! A24   A(16,4,17)            106.2879                                         !
 ! A25   A(3,5,7)              118.4503                                         !
 ! A26   A(3,5,18)             110.0765                                         !
 ! A27   A(3,5,19)             106.1897                                         !
 ! A28   A(7,5,18)             110.8665                                         !
 ! A29   A(7,5,19)             106.8849                                         !
 ! A30   A(18,5,19)            103.0751                                         !
 ! A31   A(4,6,8)              119.2201                                         !
 ! A32   A(4,6,20)             106.8115                                         !
 ! A33   A(4,6,21)             109.3246                                         !
 ! A34   A(8,6,20)             107.4064                                         !
 ! A35   A(8,6,21)             108.9831                                         !
 ! A36   A(20,6,21)            104.0073                                         !
 ! A37   A(5,7,8)              119.879                                          !
 ! A38   A(5,7,22)             106.8802                                         !
 ! A39   A(5,7,23)             109.7074                                         !
 ! A40   A(8,7,22)             106.2397                                         !
 ! A41   A(8,7,23)             110.8395                                         !
 ! A42   A(22,7,23)            101.5543                                         !
 ! A43   A(6,8,7)              116.8996                                         !
 ! A44   A(6,8,9)              111.4589                                         !
 ! A45   A(6,8,24)             105.546                                          !
 ! A46   A(7,8,9)              110.935                                          !
 ! A47   A(7,8,24)             106.624                                          !
 ! A48   A(9,8,24)             104.3181                                         !
 ! A49   A(8,9,25)             110.7678                                         !
 ! A50   A(8,9,26)             110.8611                                         !
 ! A51   A(8,9,27)             111.3422                                         !
 ! A52   A(25,9,26)            108.083                                          !
 ! A53   A(25,9,27)            107.8584                                         !
 ! A54   A(26,9,27)            107.7898                                         !
 ! D1    D(3,1,2,4)            -44.5546         Frozen                          !
 ! D2    D(3,1,2,12)            83.2971         Frozen                          !
 ! D3    D(3,1,2,13)          -164.263          Frozen                          !
 ! D4    D(10,1,2,4)            82.0971         Frozen                          !
 ! D5    D(10,1,2,12)         -150.0512         Frozen                          !
 ! D6    D(10,1,2,13)          -37.6112         Frozen                          !
 ! D7    D(11,1,2,4)          -162.2513         Frozen                          !
 ! D8    D(11,1,2,12)          -34.3997         Frozen                          !
 ! D9    D(11,1,2,13)           78.0403         Frozen                          !
 ! D10   D(2,1,3,5)            112.0639         Frozen                          !
 ! D11   D(2,1,3,14)          -128.2124         Frozen                          !
 ! D12   D(2,1,3,15)           -12.0508         Frozen                          !
 ! D13   D(10,1,3,5)           -15.056          Frozen                          !
 ! D14   D(10,1,3,14)          104.6677         Frozen                          !
 ! D15   D(10,1,3,15)         -139.1708         Frozen                          !
 ! D16   D(11,1,3,5)          -129.8007         Frozen                          !
 ! D17   D(11,1,3,14)          -10.077          Frozen                          !
 ! D18   D(11,1,3,15)          106.0846         Frozen                          !
 ! D19   D(1,2,4,6)            -54.6784         Frozen                          !
 ! D20   D(1,2,4,16)            70.0621         Frozen                          !
 ! D21   D(1,2,4,17)          -174.7457         Frozen                          !
 ! D22   D(12,2,4,6)           177.0966         Frozen                          !
 ! D23   D(12,2,4,16)          -58.1629         Frozen                          !
 ! D24   D(12,2,4,17)           57.0293         Frozen                          !
 ! D25   D(13,2,4,6)            65.8188         Frozen                          !
 ! D26   D(13,2,4,16)         -169.4407         Frozen                          !
 ! D27   D(13,2,4,17)          -54.2486         Frozen                          !
 ! D28   D(1,3,5,7)            -40.3947         Frozen                          !
 ! D29   D(1,3,5,18)            88.6081         Frozen                          !
 ! D30   D(1,3,5,19)          -160.4807         Frozen                          !
 ! D31   D(14,3,5,7)          -160.1559         Frozen                          !
 ! D32   D(14,3,5,18)          -31.1531         Frozen                          !
 ! D33   D(14,3,5,19)           79.7581         Frozen                          !
 ! D34   D(15,3,5,7)            83.7415         Frozen                          !
 ! D35   D(15,3,5,18)         -147.2557         Frozen                          !
 ! D36   D(15,3,5,19)          -36.3445         Frozen                          !
 ! D37   D(2,4,6,8)             93.2502         Frozen                          !
 ! D38   D(2,4,6,20)          -144.9425         Frozen                          !
 ! D39   D(2,4,6,21)           -32.9861         Frozen                          !
 ! D40   D(16,4,6,8)           -30.8404         Frozen                          !
 ! D41   D(16,4,6,20)           90.9669         Frozen                          !
 ! D42   D(16,4,6,21)         -157.0768         Frozen                          !
 ! D43   D(17,4,6,8)          -146.3765         Frozen                          !
 ! D44   D(17,4,6,20)          -24.5692         Frozen                          !
 ! D45   D(17,4,6,21)           87.3872         Frozen                          !
 ! D46   D(3,5,7,8)            -54.7742         Frozen                          !
 ! D47   D(3,5,7,22)            65.9823         Frozen                          !
 ! D48   D(3,5,7,23)           175.3136         Frozen                          !
 ! D49   D(18,5,7,8)           176.5895         Frozen                          !
 ! D50   D(18,5,7,22)          -62.654          Frozen                          !
 ! D51   D(18,5,7,23)           46.6774         Frozen                          !
 ! D52   D(19,5,7,8)            64.9529         Frozen                          !
 ! D53   D(19,5,7,22)         -174.2907         Frozen                          !
 ! D54   D(19,5,7,23)          -64.9593         Frozen                          !
 ! D55   D(4,6,8,7)            -78.5005         Frozen                          !
 ! D56   D(4,6,8,9)             50.5438         Frozen                          !
 ! D57   D(4,6,8,24)           163.1979         Frozen                          !
 ! D58   D(20,6,8,7)           159.9892         Frozen                          !
 ! D59   D(20,6,8,9)           -70.9666         Frozen                          !
 ! D60   D(20,6,8,24)           41.6876         Frozen                          !
 ! D61   D(21,6,8,7)            47.8972         Frozen                          !
 ! D62   D(21,6,8,9)           176.9415         Frozen                          !
 ! D63   D(21,6,8,24)          -70.4044         Frozen                          !
 ! D64   D(5,7,8,6)             84.8835         Frozen                          !
 ! D65   D(5,7,8,9)            -44.4101         Frozen                          !
 ! D66   D(5,7,8,24)          -157.3993         Frozen                          !
 ! D67   D(22,7,8,6)           -36.1909         Frozen                          !
 ! D68   D(22,7,8,9)          -165.4846         Frozen                          !
 ! D69   D(22,7,8,24)           81.5262         Frozen                          !
 ! D70   D(23,7,8,6)          -145.7087         Frozen                          !
 ! D71   D(23,7,8,9)            84.9976         Frozen                          !
 ! D72   D(23,7,8,24)          -27.9915         Frozen                          !
 ! D73   D(6,8,9,25)           -57.2734         Frozen                          !
 ! D74   D(6,8,9,26)          -177.258          Frozen                          !
 ! D75   D(6,8,9,27)            62.7463         Frozen                          !
 ! D76   D(7,8,9,25)            74.8605         Frozen                          !
 ! D77   D(7,8,9,26)           -45.1242         Frozen                          !
 ! D78   D(7,8,9,27)          -165.1199         Frozen                          !
 ! D79   D(24,8,9,25)         -170.6974         Frozen                          !
 ! D80   D(24,8,9,26)           69.3179         Frozen                          !
 ! D81   D(24,8,9,27)          -50.6777         Frozen                          !
 --------------------------------------------------------------------------------
                          Input orientation:                          
 ---------------------------------------------------------------------
 Center     Atomic      Atomic             Coordinates (Angstroms)
 Number     Number       Type             X           Y           Z
 ---------------------------------------------------------------------
      1          6           0        8.848445   38.092938   30.734536
      2          6           0        7.830781   38.795799   29.814603
      3          6           0        9.050286   36.591551   30.410035
      4          6           0        7.921954   38.511117   28.301076
      5          6           0       10.453999   36.256255   29.841547
      6          6           0        9.309623   38.776879   27.667073
      7          6           0       11.088516   37.231489   28.823631
      8          6           0       10.321188   37.614133   27.550812
      9          7           0        9.685109   36.381002   26.904035
     10          1           0        9.806480   38.619737   30.758680
     11          1           0        8.455296   38.142272   31.754222
     12          1           0        6.807164   38.631398   30.167418
     13          1           0        7.969174   39.880008   29.930920
     14          1           0        8.919750   36.026591   31.335952
     15          1           0        8.272286   36.247777   29.717840
     16          1           0        7.603805   37.475331   28.108222
     17          1           0        7.199425   39.153631   27.791503
     18          1           0       11.147534   36.040129   30.657946
     19          1           0       10.355258   35.280836   29.332717
     20          1           0        9.127885   39.157004   26.652601
     21          1           0        9.788331   39.614805   28.181963
     22          1           0       11.281677   38.168335   29.358342
     23          1           0       12.106240   36.902872   28.581637
     24          1           0       11.067714   37.946559   26.823281
     25          1           0        8.861550   36.076138   27.434276
     26          1           0       10.349842   35.601404   26.872727
     27          1           0        9.385787   36.576203   25.943107
 ---------------------------------------------------------------------
                    Distance matrix (angstroms):
                    1          2          3          4          5
     1  C    0.000000
     2  C    1.541405   0.000000
     3  C    1.549260   2.588521   0.000000
     4  C    2.637231   1.542764   3.066851   0.000000
     5  C    2.597815   3.651203   1.551133   3.724071   0.000000
     6  C    3.176443   2.607531   3.516640   1.548616   3.520154
     7  C    3.067828   3.747256   2.660936   3.455087   1.545913
     8  C    3.540385   3.566962   3.291812   2.669045   2.666260
     9  N    4.278255   4.212028   3.569224   3.098036   3.039034
    10  H    1.093586   2.196740   2.192470   3.098880   2.616575
    11  H    1.093965   2.139915   2.136723   3.513505   3.348163
    12  H    2.185953   1.095124   3.041617   2.177259   4.364276
    13  H    2.147681   1.099178   3.494611   2.128963   4.394762
    14  H    2.153271   3.341986   1.092493   4.047090   2.154045
    15  H    2.184090   2.587799   1.096630   2.693076   2.185234
    16  H    2.971211   2.169537   2.858621   1.100574   3.551643
    17  H    3.536351   2.149322   4.104467   1.092949   4.815571
    18  H    3.083132   4.393837   2.182654   4.697338   1.092799
    19  H    3.484752   4.354327   2.140453   4.173723   1.104581
    20  H    4.227590   3.436743   4.550371   2.142174   4.510244
    21  H    3.116905   2.677366   3.827412   2.171561   3.804891
    22  H    2.796464   3.537028   2.927698   3.538792   2.138829
    23  H    4.082213   4.835590   3.574747   4.491482   2.176094
    24  H    4.499389   4.488536   4.332536   3.521137   3.513361
    25  H    3.867735   3.758324   3.025956   2.750146   2.891935
    26  H    4.834822   5.020405   3.896381   4.049846   3.041968
    27  H    5.054405   4.725794   4.479535   3.383299   4.054784
                    6          7          8          9         10
     6  C    0.000000
     7  C    2.624942   0.000000
     8  C    1.545561   1.534692   0.000000
     9  N    2.542330   2.525417   1.530859   0.000000
    10  H    3.135219   2.704674   3.400968   4.459255   0.000000
    11  H    4.223433   4.043727   4.629162   5.304603   1.744928
    12  H    3.540507   4.700583   4.497758   4.898624   3.057061
    13  H    2.852841   4.239226   4.041172   4.934522   2.376797
    14  H    4.601821   3.530875   4.337235   4.511459   2.800703
    15  H    3.417319   3.114233   3.280387   3.151399   3.010530
    16  H    2.190537   3.565737   2.777435   2.641864   3.631304
    17  H    2.147175   4.459254   3.489039   3.828015   3.985714
    18  H    4.451185   2.188044   3.579752   4.043109   2.909115
    19  H    4.011239   2.145200   2.936090   2.749175   3.671891
    20  H    1.098488   3.502150   2.147372   2.842518   4.196311
    21  H    1.093798   2.789698   2.164481   3.478683   2.762239
    22  H    2.668279   1.095859   2.120576   3.430337   2.083486
    23  H    3.488466   1.096500   2.180574   2.991416   3.602227
    24  H    2.119505   2.124420   1.094124   2.090236   4.187033
    25  H    2.747538   2.867843   2.123571   1.025839   4.291206
    26  H    3.434630   2.647422   2.124077   1.025000   4.950374
    27  H    2.796575   3.409707   2.130020   1.025221   5.248119
                   11         12         13         14         15
    11  H    0.000000
    12  H    2.339557   0.000000
    13  H    2.565243   1.721984   0.000000
    14  H    2.206076   3.551550   4.210289   0.000000
    15  H    2.787374   2.833787   3.651079   1.756821   0.000000
    16  H    3.803046   2.492271   3.039440   3.774758   2.131812
    17  H    4.278223   2.464055   2.386889   5.030011   3.647710
    18  H    3.587335   5.078790   5.037382   2.328711   3.032156
    19  H    4.202541   4.950955   5.215710   2.574836   2.328533
    20  H    5.244863   4.244520   3.551439   5.637072   4.311768
    21  H    4.087343   3.714361   2.537423   4.855652   3.999273
    22  H    3.705313   4.570590   3.772312   3.751894   3.588065
    23  H    4.993075   5.795059   5.272496   4.302073   4.052074
    24  H    5.583655   5.459354   4.795476   5.353898   4.367923
    25  H    4.805817   4.268480   4.636701   3.902424   2.364605
    26  H    5.820163   5.708452   5.772918   4.705988   3.581718
    27  H    6.089945   5.358911   5.368852   5.440775   3.949222
                   16         17         18         19         20
    16  H    0.000000
    17  H    1.755143   0.000000
    18  H    4.595532   5.787742   0.000000
    19  H    3.726350   5.228113   1.720598   0.000000
    20  H    2.696234   2.239658   5.462297   4.869717   0.000000
    21  H    3.058584   2.658491   4.555902   4.519838   1.727633
    22  H    3.945857   4.482250   2.497245   3.032583   3.596848
    23  H    4.563304   5.455919   2.444280   2.502211   4.203913
    24  H    3.724486   4.166310   4.283166   3.729738   2.292868
    25  H    1.998466   3.515855   3.952097   2.543176   3.189622
    26  H    3.546656   4.836072   3.893158   2.480795   3.766156
    27  H    2.944760   3.852257   5.061703   3.755969   2.688946
                   21         22         23         24         25
    21  H    0.000000
    22  H    2.388771   0.000000
    23  H    3.589850   1.698403   0.000000
    24  H    2.503174   2.553723   2.293389   0.000000
    25  H    3.733648   3.733139   3.539482   2.956171   0.000000
    26  H    4.258730   3.692659   2.774729   2.453067   1.660037
    27  H    3.795736   4.218188   3.803868   2.341251   1.657852
                   26         27
    26  H    0.000000
    27  H    1.656451   0.000000
 Stoichiometry    C8H18N(1+)
 Framework group  C1[X(C8H18N)]
 Deg. of freedom    75
 Full point group                 C1      NOp   1
 Largest Abelian subgroup         C1      NOp   1
 Largest concise Abelian subgroup C1      NOp   1
                         Standard orientation:                         
 ---------------------------------------------------------------------
 Center     Atomic      Atomic             Coordinates (Angstroms)
 Number     Number       Type             X           Y           Z
 ---------------------------------------------------------------------
      1          6           0        1.915977    0.583999    0.303675
      2          6           0        2.008934   -0.918657   -0.026950
      3          6           0        1.030547    1.386478   -0.682350
      4          6           0        0.701995   -1.649469   -0.398360
      5          6           0       -0.279764    1.926082   -0.051536
      6          6           0       -0.438257   -1.521501    0.641669
      7          6           0       -1.057529    1.013635    0.924357
      8          6           0       -1.482242   -0.393113    0.481683
      9          7           0       -2.067556   -0.368081   -0.932640
     10          1           0        1.602797    0.754349    1.337518
     11          1           0        2.925372    0.998504    0.225781
     12          1           0        2.773333   -1.104058   -0.788933
     13          1           0        2.404729   -1.431725    0.860914
     14          1           0        1.610339    2.242642   -1.035005
     15          1           0        0.800042    0.776328   -1.563929
     16          1           0        0.361712   -1.302312   -1.385757
     17          1           0        0.928290   -2.713035   -0.508616
     18          1           0       -0.105705    2.910141    0.390664
     19          1           0       -0.958873    2.147332   -0.894126
     20          1           0       -0.982294   -2.475788    0.635697
     21          1           0       -0.007951   -1.468347    1.645863
     22          1           0       -0.423154    0.878492    1.807653
     23          1           0       -1.907478    1.563009    1.346359
     24          1           0       -2.324563   -0.680550    1.118066
     25          1           0       -1.324853   -0.258840   -1.631786
     26          1           0       -2.724568    0.411017   -1.042030
     27          1           0       -2.572258   -1.235324   -1.142980
 ---------------------------------------------------------------------
 Rotational constants (GHZ):           1.8833970           1.5151958           1.0634771
 Standard basis: 6-31G(d,p) (6D, 7F)
 There are   225 symmetry adapted cartesian basis functions of A   symmetry.
 There are   225 symmetry adapted basis functions of A   symmetry.
   225 basis functions,   378 primitive gaussians,   225 cartesian basis functions
    36 alpha electrons       36 beta electrons
       nuclear repulsion energy       515.7505079383 Hartrees.
 NAtoms=   27 NActive=   27 NUniq=   27 SFac= 1.00D+00 NAtFMM=   60 NAOKFM=F Big=F
 Integral buffers will be    131072 words long.
 Raffenetti 1 integral format.
 Two-electron integral symmetry is turned on.
 ------------------------------------------------------------------------------
 Polarizable Continuum Model (PCM)
 =================================
 Model                : PCM.
 Atomic radii         : UFF (Universal Force Field).
 Polarization charges : Total charges.
 Charge compensation  : None.
 Solution method      : On-the-fly selection.
 Cavity type          : Scaled VdW (van der Waals Surface) (Alpha=1.100).
 Cavity algorithm     : GePol (No added spheres)
                        Default sphere list used, NSphG=   27.
                        Lebedev-Laikov grids with approx.  5.0 points / Ang**2.
                        Smoothing algorithm: York/Karplus (Gamma=1.0000).
                        Polarization charges: spherical gaussians, with
                                              point-specific exponents (IZeta= 3).
                        Self-potential: point-specific (ISelfS= 7).
                        Self-field    : sphere-specific E.n sum rule (ISelfD= 2).
 Solvent              : Water, Eps=  78.355300 Eps(inf)=   1.777849
 ------------------------------------------------------------------------------
 One-electron integrals computed using PRISM.
 NBasis=   225 RedAO= T EigKep=  3.04D-03  NBF=   225
 NBsUse=   225 1.00D-06 EigRej= -1.00D+00 NBFU=   225
 Initial guess from the checkpoint file:  "G7.chk"
 B after Tr=    -0.000000   -0.000000   -0.000000
         Rot=    1.000000    0.000000    0.000000    0.000000 Ang=   0.00 deg.
 Requested convergence on RMS density matrix=1.00D-08 within 128 cycles.
 Requested convergence on MAX density matrix=1.00D-06.
 Requested convergence on             energy=1.00D-06.
 No special actions if energy rises.
 Inv3:  Mode=1 IEnd=     7708827.
 Iteration    1 A*A^-1 deviation from unit magnitude is 3.11D-15 for   1586.
 Iteration    1 A*A^-1 deviation from orthogonality  is 2.04D-15 for   1582   1574.
 Iteration    1 A^-1*A deviation from unit magnitude is 3.33D-15 for   1586.
 Iteration    1 A^-1*A deviation from orthogonality  is 2.12D-15 for   1574    599.
 Error on total polarization charges =  0.00749
 SCF Done:  E(RHF) =  -367.762432371     A.U. after   11 cycles
            NFock= 11  Conv=0.34D-08     -V/T= 2.0020

 **********************************************************************

            Population analysis using the SCF density.

 **********************************************************************

 Orbital symmetries:
       Occupied  (A) (A) (A) (A) (A) (A) (A) (A) (A) (A) (A) (A)
                 (A) (A) (A) (A) (A) (A) (A) (A) (A) (A) (A) (A)
                 (A) (A) (A) (A) (A) (A) (A) (A) (A) (A) (A) (A)
       Virtual   (A) (A) (A) (A) (A) (A) (A) (A) (A) (A) (A) (A)
                 (A) (A) (A) (A) (A) (A) (A) (A) (A) (A) (A) (A)
                 (A) (A) (A) (A) (A) (A) (A) (A) (A) (A) (A) (A)
                 (A) (A) (A) (A) (A) (A) (A) (A) (A) (A) (A) (A)
                 (A) (A) (A) (A) (A) (A) (A) (A) (A) (A) (A) (A)
                 (A) (A) (A) (A) (A) (A) (A) (A) (A) (A) (A) (A)
                 (A) (A) (A) (A) (A) (A) (A) (A) (A) (A) (A) (A)
                 (A) (A) (A) (A) (A) (A) (A) (A) (A) (A) (A) (A)
                 (A) (A) (A) (A) (A) (A) (A) (A) (A) (A) (A) (A)
                 (A) (A) (A) (A) (A) (A) (A) (A) (A) (A) (A) (A)
                 (A) (A) (A) (A) (A) (A) (A) (A) (A) (A) (A) (A)
                 (A) (A) (A) (A) (A) (A) (A) (A) (A) (A) (A) (A)
                 (A) (A) (A) (A) (A) (A) (A) (A) (A) (A) (A) (A)
                 (A) (A) (A) (A) (A) (A) (A) (A) (A) (A) (A) (A)
                 (A) (A) (A) (A) (A) (A) (A) (A) (A) (A) (A) (A)
                 (A) (A) (A) (A) (A) (A) (A) (A) (A)
 The electronic state is 1-A.
 Alpha  occ. eigenvalues --  -15.71144 -11.31727 -11.24808 -11.24593 -11.23707
 Alpha  occ. eigenvalues --  -11.23672 -11.22784 -11.22468 -11.22176  -1.32324
 Alpha  occ. eigenvalues --   -1.11553  -1.05891  -1.05609  -0.94213  -0.93732
 Alpha  occ. eigenvalues --   -0.83192  -0.81296  -0.78266  -0.77155  -0.75694
 Alpha  occ. eigenvalues --   -0.66238  -0.65146  -0.63873  -0.61478  -0.59827
 Alpha  occ. eigenvalues --   -0.59668  -0.56555  -0.53283  -0.51844  -0.51687
 Alpha  occ. eigenvalues --   -0.49284  -0.48536  -0.48279  -0.45410  -0.44397
 Alpha  occ. eigenvalues --   -0.43930
 Alpha virt. eigenvalues --    0.15739   0.20279   0.21937   0.23664   0.24265
 Alpha virt. eigenvalues --    0.25954   0.27088   0.28835   0.29036   0.29783
 Alpha virt. eigenvalues --    0.30316   0.32258   0.32313   0.32935   0.34147
 Alpha virt. eigenvalues --    0.34311   0.35379   0.37746   0.37990   0.38289
 Alpha virt. eigenvalues --    0.38638   0.39887   0.43760   0.46308   0.47763
 Alpha virt. eigenvalues --    0.49849   0.53436   0.64610   0.68937   0.70124
 Alpha virt. eigenvalues --    0.70996   0.72437   0.74192   0.76860   0.77925
 Alpha virt. eigenvalues --    0.80937   0.84908   0.87018   0.88537   0.88914
 Alpha virt. eigenvalues --    0.90492   0.92436   0.93964   0.96337   0.96622
 Alpha virt. eigenvalues --    0.98639   1.00313   1.02085   1.02564   1.03441
 Alpha virt. eigenvalues --    1.05091   1.06765   1.08188   1.09382   1.10074
 Alpha virt. eigenvalues --    1.10845   1.11866   1.12302   1.14018   1.14923
 Alpha virt. eigenvalues --    1.16517   1.18113   1.19241   1.19791   1.20115
 Alpha virt. eigenvalues --    1.20897   1.21472   1.21814   1.22406   1.24350
 Alpha virt. eigenvalues --    1.26000   1.32470   1.39924   1.41688   1.43381
 Alpha virt. eigenvalues --    1.54386   1.54814   1.62819   1.64227   1.69633
 Alpha virt. eigenvalues --    1.72269   1.73061   1.81805   1.82387   1.84110
 Alpha virt. eigenvalues --    1.87475   1.91330   1.93495   1.96150   2.00992
 Alpha virt. eigenvalues --    2.03214   2.04397   2.07559   2.07972   2.09400
 Alpha virt. eigenvalues --    2.11855   2.12390   2.14401   2.16594   2.18729
 Alpha virt. eigenvalues --    2.21357   2.23477   2.24743   2.26938   2.28200
 Alpha virt. eigenvalues --    2.29121   2.32898   2.33412   2.37148   2.39747
 Alpha virt. eigenvalues --    2.43527   2.46039   2.47122   2.47534   2.49919
 Alpha virt. eigenvalues --    2.51893   2.53361   2.54299   2.56173   2.56905
 Alpha virt. eigenvalues --    2.57650   2.59496   2.60346   2.62497   2.63532
 Alpha virt. eigenvalues --    2.64371   2.64832   2.66687   2.68474   2.69816
 Alpha virt. eigenvalues --    2.74213   2.74389   2.75238   2.77614   2.83037
 Alpha virt. eigenvalues --    2.85016   2.88439   2.91304   2.94489   2.95242
 Alpha virt. eigenvalues --    2.96644   2.98749   2.99555   3.01907   3.03603
 Alpha virt. eigenvalues --    3.04877   3.05548   3.07029   3.10534   3.12000
 Alpha virt. eigenvalues --    3.13358   3.16105   3.17494   3.19610   3.20163
 Alpha virt. eigenvalues --    3.22203   3.24892   3.26372   3.27816   3.28819
 Alpha virt. eigenvalues --    3.30519   3.31482   3.52051   3.61149   3.63943
 Alpha virt. eigenvalues --    3.65061   3.67665   3.68704   3.69381   3.71087
 Alpha virt. eigenvalues --    3.72587   3.75564   3.78328   3.81375   3.83011
 Alpha virt. eigenvalues --    3.84511   3.87520   3.89608   3.92469   3.96999
 Alpha virt. eigenvalues --    4.43654   4.66125   4.76010   4.82723   4.99920
 Alpha virt. eigenvalues --    5.10478   5.13963   5.17187   5.19775
          Condensed to atoms (all electrons):
               1          2          3          4          5          6
     1  C    5.031666   0.331977   0.306810  -0.046814  -0.047227  -0.000928
     2  C    0.331977   4.975603  -0.047902   0.337834   0.000608  -0.051202
     3  C    0.306810  -0.047902   5.043039  -0.010886   0.323030   0.000207
     4  C   -0.046814   0.337834  -0.010886   5.026079   0.002030   0.306176
     5  C   -0.047227   0.000608   0.323030   0.002030   5.016201   0.000889
     6  C   -0.000928  -0.051202   0.000207   0.306176   0.000889   5.057231
     7  C   -0.010872   0.002294  -0.047767   0.000221   0.326712  -0.047547
     8  C    0.000289   0.000931   0.002335  -0.043778  -0.047212   0.335475
     9  N    0.000111   0.000190  -0.000032  -0.003512  -0.005501  -0.055751
    10  H    0.414601  -0.036672  -0.045523  -0.000763  -0.005430   0.001369
    11  H    0.418714  -0.039041  -0.042507   0.003953   0.003464  -0.000076
    12  H   -0.036163   0.413719  -0.000957  -0.038729   0.000019   0.004270
    13  H   -0.043335   0.411998   0.004629  -0.045429  -0.000163  -0.005085
    14  H   -0.039166   0.003280   0.420633   0.000095  -0.036899  -0.000012
    15  H   -0.047984  -0.005702   0.413251  -0.003223  -0.041867  -0.000134
    16  H   -0.002033  -0.042119  -0.001097   0.403222  -0.000214  -0.047966
    17  H    0.003548  -0.038190   0.000141   0.423001  -0.000011  -0.038441
    18  H   -0.000612  -0.000001  -0.033971  -0.000021   0.416172  -0.000070
    19  H    0.004779  -0.000154  -0.049629   0.000026   0.409770   0.000113
    20  H   -0.000091   0.003724  -0.000016  -0.041904  -0.000119   0.417569
    21  H   -0.000337  -0.004671   0.000195  -0.035968   0.000172   0.410313
    22  H   -0.000817  -0.000034  -0.003707   0.000266  -0.037919  -0.006356
    23  H    0.000135  -0.000014   0.003283  -0.000095  -0.033892   0.003450
    24  H   -0.000014  -0.000103  -0.000086   0.003383   0.003022  -0.041690
    25  H   -0.000171  -0.000208   0.000949   0.003073   0.000618  -0.003774
    26  H    0.000009  -0.000010   0.000045   0.000005  -0.000100   0.002719
    27  H   -0.000000   0.000010  -0.000033  -0.000051   0.000061  -0.000624
               7          8          9         10         11         12
     1  C   -0.010872   0.000289   0.000111   0.414601   0.418714  -0.036163
     2  C    0.002294   0.000931   0.000190  -0.036672  -0.039041   0.413719
     3  C   -0.047767   0.002335  -0.000032  -0.045523  -0.042507  -0.000957
     4  C    0.000221  -0.043778  -0.003512  -0.000763   0.003953  -0.038729
     5  C    0.326712  -0.047212  -0.005501  -0.005430   0.003464   0.000019
     6  C   -0.047547   0.335475  -0.055751   0.001369  -0.000076   0.004270
     7  C    5.048437   0.322387  -0.050850  -0.003642   0.000132  -0.000031
     8  C    0.322387   5.069312   0.149668  -0.000203  -0.000004  -0.000108
     9  N   -0.050850   0.149668   6.622531  -0.000010  -0.000001   0.000000
    10  H   -0.003642  -0.000203  -0.000010   0.578108  -0.029138   0.003772
    11  H    0.000132  -0.000004  -0.000001  -0.029138   0.570003  -0.006346
    12  H   -0.000031  -0.000108   0.000000   0.003772  -0.006346   0.573172
    13  H    0.000019   0.000104  -0.000003  -0.005967  -0.000735  -0.033472
    14  H    0.003523  -0.000110   0.000018   0.002255  -0.009452  -0.000002
    15  H   -0.000255   0.001415  -0.000829   0.003408   0.002477   0.000972
    16  H    0.000421  -0.006416  -0.002966  -0.000026  -0.000099  -0.003836
    17  H   -0.000094   0.003428   0.000051  -0.000082  -0.000083  -0.002273
    18  H   -0.031918   0.003702  -0.000128   0.000809   0.000010   0.000001
    19  H   -0.047113  -0.006782   0.001161   0.000120  -0.000122   0.000003
    20  H    0.004084  -0.042408  -0.000531   0.000001   0.000001  -0.000096
    21  H   -0.004433  -0.033827   0.002742   0.000004  -0.000053   0.000068
    22  H    0.414411  -0.043800   0.003483  -0.000470  -0.000042   0.000001
    23  H    0.415787  -0.035912  -0.000038  -0.000029   0.000000  -0.000000
    24  H   -0.040094   0.437947  -0.039328   0.000020   0.000000   0.000002
    25  H   -0.002103  -0.015993   0.332879   0.000014   0.000002   0.000010
    26  H   -0.001859  -0.020295   0.340976  -0.000001  -0.000000  -0.000000
    27  H    0.002738  -0.017927   0.339106   0.000000  -0.000000  -0.000000
              13         14         15         16         17         18
     1  C   -0.043335  -0.039166  -0.047984  -0.002033   0.003548  -0.000612
     2  C    0.411998   0.003280  -0.005702  -0.042119  -0.038190  -0.000001
     3  C    0.004629   0.420633   0.413251  -0.001097   0.000141  -0.033971
     4  C   -0.045429   0.000095  -0.003223   0.403222   0.423001  -0.000021
     5  C   -0.000163  -0.036899  -0.041867  -0.000214  -0.000011   0.416172
     6  C   -0.005085  -0.000012  -0.000134  -0.047966  -0.038441  -0.000070
     7  C    0.000019   0.003523  -0.000255   0.000421  -0.000094  -0.031918
     8  C    0.000104  -0.000110   0.001415  -0.006416   0.003428   0.003702
     9  N   -0.000003   0.000018  -0.000829  -0.002966   0.000051  -0.000128
    10  H   -0.005967   0.002255   0.003408  -0.000026  -0.000082   0.000809
    11  H   -0.000735  -0.009452   0.002477  -0.000099  -0.000083   0.000010
    12  H   -0.033472  -0.000002   0.000972  -0.003836  -0.002273   0.000001
    13  H    0.597153  -0.000109   0.000120   0.004957  -0.004130   0.000002
    14  H   -0.000109   0.550227  -0.027183   0.000003   0.000000  -0.006097
    15  H    0.000120  -0.027183   0.601772  -0.002077  -0.000021   0.003817
    16  H    0.004957   0.000003  -0.002077   0.624413  -0.027270   0.000000
    17  H   -0.004130   0.000000  -0.000021  -0.027270   0.539838  -0.000000
    18  H    0.000002  -0.006097   0.003817   0.000000  -0.000000   0.535829
    19  H    0.000004  -0.000401  -0.007027   0.000011  -0.000001  -0.030482
    20  H   -0.000048   0.000000   0.000015   0.000820  -0.008179   0.000001
    21  H    0.002433   0.000001  -0.000023   0.003736   0.000572  -0.000009
    22  H    0.000057  -0.000019  -0.000018   0.000014  -0.000011  -0.003493
    23  H   -0.000001  -0.000069  -0.000088  -0.000008   0.000001  -0.002779
    24  H   -0.000003   0.000001   0.000004  -0.000038  -0.000075  -0.000056
    25  H    0.000004  -0.000021   0.002031   0.002462  -0.000153  -0.000000
    26  H    0.000000  -0.000000  -0.000082   0.000139   0.000002  -0.000060
    27  H    0.000000  -0.000000   0.000024   0.000217  -0.000041   0.000002
              19         20         21         22         23         24
     1  C    0.004779  -0.000091  -0.000337  -0.000817   0.000135  -0.000014
     2  C   -0.000154   0.003724  -0.004671  -0.000034  -0.000014  -0.000103
     3  C   -0.049629  -0.000016   0.000195  -0.003707   0.003283  -0.000086
     4  C    0.000026  -0.041904  -0.035968   0.000266  -0.000095   0.003383
     5  C    0.409770  -0.000119   0.000172  -0.037919  -0.033892   0.003022
     6  C    0.000113   0.417569   0.410313  -0.006356   0.003450  -0.041690
     7  C   -0.047113   0.004084  -0.004433   0.414411   0.415787  -0.040094
     8  C   -0.006782  -0.042408  -0.033827  -0.043800  -0.035912   0.437947
     9  N    0.001161  -0.000531   0.002742   0.003483  -0.000038  -0.039328
    10  H    0.000120   0.000001   0.000004  -0.000470  -0.000029   0.000020
    11  H   -0.000122   0.000001  -0.000053  -0.000042   0.000000   0.000000
    12  H    0.000003  -0.000096   0.000068   0.000001  -0.000000   0.000002
    13  H    0.000004  -0.000048   0.002433   0.000057  -0.000001  -0.000003
    14  H   -0.000401   0.000000   0.000001  -0.000019  -0.000069   0.000001
    15  H   -0.007027   0.000015  -0.000023  -0.000018  -0.000088   0.000004
    16  H    0.000011   0.000820   0.003736   0.000014  -0.000008  -0.000038
    17  H   -0.000001  -0.008179   0.000572  -0.000011   0.000001  -0.000075
    18  H   -0.030482   0.000001  -0.000009  -0.003493  -0.002779  -0.000056
    19  H    0.612402   0.000000  -0.000000   0.004900  -0.003368  -0.000096
    20  H    0.000000   0.543991  -0.025872   0.000141  -0.000099  -0.006304
    21  H   -0.000000  -0.025872   0.520338   0.000930   0.000060  -0.000984
    22  H    0.004900   0.000141   0.000930   0.549762  -0.030988  -0.000269
    23  H   -0.003368  -0.000099   0.000060  -0.030988   0.528888  -0.005781
    24  H   -0.000096  -0.006304  -0.000984  -0.000269  -0.005781   0.479769
    25  H   -0.000725  -0.000037   0.000013  -0.000020  -0.000064   0.002839
    26  H    0.001045  -0.000122  -0.000038   0.000028   0.001051  -0.001428
    27  H    0.000054   0.001550  -0.000027  -0.000050  -0.000116  -0.003073
              25         26         27
     1  C   -0.000171   0.000009  -0.000000
     2  C   -0.000208  -0.000010   0.000010
     3  C    0.000949   0.000045  -0.000033
     4  C    0.003073   0.000005  -0.000051
     5  C    0.000618  -0.000100   0.000061
     6  C   -0.003774   0.002719  -0.000624
     7  C   -0.002103  -0.001859   0.002738
     8  C   -0.015993  -0.020295  -0.017927
     9  N    0.332879   0.340976   0.339106
    10  H    0.000014  -0.000001   0.000000
    11  H    0.000002  -0.000000  -0.000000
    12  H    0.000010  -0.000000  -0.000000
    13  H    0.000004   0.000000   0.000000
    14  H   -0.000021  -0.000000  -0.000000
    15  H    0.002031  -0.000082   0.000024
    16  H    0.002462   0.000139   0.000217
    17  H   -0.000153   0.000002  -0.000041
    18  H   -0.000000  -0.000060   0.000002
    19  H   -0.000725   0.001045   0.000054
    20  H   -0.000037  -0.000122   0.001550
    21  H    0.000013  -0.000038  -0.000027
    22  H   -0.000020   0.000028  -0.000050
    23  H   -0.000064   0.001051  -0.000116
    24  H    0.002839  -0.001428  -0.003073
    25  H    0.306021  -0.011699  -0.011334
    26  H   -0.011699   0.290450  -0.010522
    27  H   -0.011334  -0.010522   0.288700
 Mulliken charges:
               1
     1  C   -0.236074
     2  C   -0.216145
     3  C   -0.234434
     4  C   -0.238189
     5  C   -0.246214
     6  C   -0.240123
     7  C   -0.252589
     8  C   -0.012217
     9  N   -0.633438
    10  H    0.123477
    11  H    0.128942
    12  H    0.126006
    13  H    0.116998
    14  H    0.139506
    15  H    0.107204
    16  H    0.095751
    17  H    0.148473
    18  H    0.149351
    19  H    0.111511
    20  H    0.153927
    21  H    0.164666
    22  H    0.154020
    23  H    0.160685
    24  H    0.212435
    25  H    0.395388
    26  H    0.409745
    27  H    0.411337
 Sum of Mulliken charges =   1.00000
 Mulliken charges with hydrogens summed into heavy atoms:
               1
     1  C    0.016345
     2  C    0.026860
     3  C    0.012277
     4  C    0.006035
     5  C    0.014647
     6  C    0.078470
     7  C    0.062116
     8  C    0.200218
     9  N    0.583033
 Electronic spatial extent (au):  <R**2>=           1286.9281
 Charge=              1.0000 electrons
 Dipole moment (field-independent basis, Debye):
    X=             -8.5380    Y=             -1.6518    Z=             -2.9902  Tot=              9.1961
 Quadrupole moment (field-independent basis, Debye-Ang):
   XX=            -35.0241   YY=            -51.2863   ZZ=            -50.0868
   XY=              3.5922   XZ=              7.3029   YZ=              1.4420
 Traceless Quadrupole moment (field-independent basis, Debye-Ang):
   XX=             10.4416   YY=             -5.8206   ZZ=             -4.6211
   XY=              3.5922   XZ=              7.3029   YZ=              1.4420
 Octapole moment (field-independent basis, Debye-Ang**2):
  XXX=            -67.9626  YYY=             -6.3514  ZZZ=             -9.8716  XYY=            -10.7703
  XXY=             -8.0415  XXZ=            -21.2852  XZZ=            -17.8064  YZZ=             -3.4093
  YYZ=             -2.0899  XYZ=             -3.9025
 Hexadecapole moment (field-independent basis, Debye-Ang**3):
 XXXX=           -638.6878 YYYY=           -625.1257 ZZZZ=           -233.3682 XXXY=             27.4495
 XXXZ=             54.1522 YYYX=             16.8862 YYYZ=              7.1598 ZZZX=             25.8533
 ZZZY=              4.9585 XXYY=           -216.5046 XXZZ=           -144.8291 YYZZ=           -147.9764
 XXYZ=              8.0853 YYXZ=              7.9579 ZZXY=              4.8892
 N-N= 5.157505079383D+02 E-N=-1.874206931720D+03  KE= 3.670101481220D+02
 Merz-Kollman atomic radii used.

 **********************************************************************

            Electrostatic Properties Using The SCF Density

 **********************************************************************

       Atomic Center    1 is at   1.915977  0.583999  0.303675
       Atomic Center    2 is at   2.008934 -0.918657 -0.026950
       Atomic Center    3 is at   1.030547  1.386478 -0.682350
       Atomic Center    4 is at   0.701995 -1.649469 -0.398360
       Atomic Center    5 is at  -0.279764  1.926082 -0.051536
       Atomic Center    6 is at  -0.438257 -1.521501  0.641669
       Atomic Center    7 is at  -1.057529  1.013635  0.924357
       Atomic Center    8 is at  -1.482242 -0.393113  0.481683
       Atomic Center    9 is at  -2.067556 -0.368081 -0.932640
       Atomic Center   10 is at   1.602797  0.754349  1.337518
       Atomic Center   11 is at   2.925372  0.998504  0.225781
       Atomic Center   12 is at   2.773333 -1.104058 -0.788933
       Atomic Center   13 is at   2.404729 -1.431725  0.860914
       Atomic Center   14 is at   1.610339  2.242642 -1.035005
       Atomic Center   15 is at   0.800042  0.776328 -1.563929
       Atomic Center   16 is at   0.361712 -1.302312 -1.385757
       Atomic Center   17 is at   0.928290 -2.713035 -0.508616
       Atomic Center   18 is at  -0.105705  2.910141  0.390664
       Atomic Center   19 is at  -0.958873  2.147332 -0.894126
       Atomic Center   20 is at  -0.982294 -2.475788  0.635697
       Atomic Center   21 is at  -0.007951 -1.468347  1.645863
       Atomic Center   22 is at  -0.423154  0.878492  1.807653
       Atomic Center   23 is at  -1.907478  1.563009  1.346359
       Atomic Center   24 is at  -2.324563 -0.680550  1.118066
       Atomic Center   25 is at  -1.324853 -0.258840 -1.631786
       Atomic Center   26 is at  -2.724568  0.411017 -1.042030
       Atomic Center   27 is at  -2.572258 -1.235324 -1.142980
     924 points will be used for fitting atomic charges
 Fitting point charges to electrostatic potential
 Charges from ESP fit, RMS=   0.00152 RRMS=   0.01202:
 ESP charges:
               1
     1  C    0.070201
     2  C   -0.122880
     3  C   -0.191618
     4  C    0.170492
     5  C    0.073374
     6  C   -0.357389
     7  C   -0.300977
     8  C    0.381284
     9  N   -0.771786
    10  H    0.007972
    11  H    0.010000
    12  H    0.036181
    13  H    0.025525
    14  H    0.065697
    15  H    0.064065
    16  H   -0.045511
    17  H    0.016017
    18  H    0.051239
    19  H   -0.018130
    20  H    0.107998
    21  H    0.124084
    22  H    0.105427
    23  H    0.094835
    24  H    0.066873
    25  H    0.441645
    26  H    0.452949
    27  H    0.442430
 Sum of ESP charges =   1.00000
 ESP charges with hydrogens summed into heavy atoms:
               1
     1  C    0.088173
     2  C   -0.061174
     3  C   -0.061855
     4  C    0.140999
     5  C    0.106483
     6  C   -0.125308
     7  C   -0.100715
     8  C    0.448158
     9  N    0.565238
 Charge=   1.00000 Dipole=    -8.5463    -1.6579    -2.9949 Tot=     9.2064
 Writing Antechamber ESP formatted file "G7.esp"
 -----------------------------------------------------------------

              Electrostatic Properties (Atomic Units)

 -----------------------------------------------------------------
    Center     Electric         -------- Electric Field --------
               Potential          X             Y             Z
 -----------------------------------------------------------------
    1 Atom    -14.620126
    2 Atom    -14.615910
    3 Atom    -14.602743
    4 Atom    -14.582962
    5 Atom    -14.582614
    6 Atom    -14.560167
    7 Atom    -14.563018
    8 Atom    -14.473400
    9 Atom    -17.997949
   10 Atom     -1.019182
   11 Atom     -1.039269
   12 Atom     -1.029744
   13 Atom     -1.033245
   14 Atom     -1.021487
   15 Atom     -0.991475
   16 Atom     -0.969757
   17 Atom     -0.998954
   18 Atom     -1.001821
   19 Atom     -0.981088
   20 Atom     -0.965170
   21 Atom     -0.971122
   22 Atom     -0.979079
   23 Atom     -0.966698
   24 Atom     -0.918036
   25 Atom     -0.749884
   26 Atom     -0.740534
   27 Atom     -0.738134
 -----------------------------------------------------------------

 Test job not archived.
 1\1\GINC-CPU187\SP\RHF\6-31G(d,p)\C8H18N1(1+)\FEBRERMA\05-Feb-2024\0\\
 # HF/6-31G** SCRF=(Solvent=Water) POP=MK iop(6/50=1) geom=allcheck gue
 ss=read\\G7\\1,1\C,0,8.8484450172,38.092938294,30.7345361155\C,0,7.830
 78059,38.7957986727,29.8146031776\C,0,9.0502855333,36.5915507544,30.41
 00345985\C,0,7.9219542089,38.5111168239,28.3010756441\C,0,10.453999233
 5,36.2562545405,29.8415469515\C,0,9.3096226157,38.7768788758,27.667072
 5615\C,0,11.0885161897,37.2314890645,28.823631431\C,0,10.3211883601,37
 .6141334412,27.5508115462\N,0,9.6851087568,36.3810020646,26.9040353028
 \H,0,9.8064801902,38.6197368884,30.7586800497\H,0,8.4552962704,38.1422
 716927,31.7542216598\H,0,6.8071642277,38.6313977694,30.1674181953\H,0,
 7.9691743308,39.8800083533,29.9309196747\H,0,8.9197501894,36.026590874
 7,31.3359517396\H,0,8.2722861184,36.2477774513,29.7178399377\H,0,7.603
 8054737,37.4753306351,28.1082221543\H,0,7.1994250088,39.1536310799,27.
 7915034352\H,0,11.1475341334,36.0401285576,30.657946444\H,0,10.3552578
 277,35.2808360059,29.3327174209\H,0,9.1278852921,39.1570044332,26.6526
 013828\H,0,9.7883306754,39.6148051289,28.1819626342\H,0,11.2816766162,
 38.1683352791,29.3583417766\H,0,12.1062395602,36.9028716968,28.5816365
 609\H,0,11.0677139285,37.9465591654,26.8232808025\H,0,8.8615503807,36.
 0761377612,27.4342760646\H,0,10.3498419249,35.6014035336,26.872727266\
 H,0,9.3857873463,36.5762031619,25.9431074727\\Version=ES64L-G16RevA.03
 \State=1-A\HF=-367.7624324\RMSD=3.384e-09\Dipole=0.6897791,-1.631718,-
 3.1546249\Quadrupole=-5.088829,-1.6993555,6.7881845,-1.3834321,-1.8672
 612,6.3504136\PG=C01 [X(C8H18N1)]\\@


 YOU CANNOT THROW TO THE GROUND THE LETTERS OF
 THE GREEK ALPHABET AND PICK UP THE ILIAD.
        - RUFUS CHOATE, 1799-1859
 Job cpu time:       0 days  0 hours  2 minutes  7.9 seconds.
 Elapsed time:       0 days  0 hours  0 minutes 17.0 seconds.
 File lengths (MBytes):  RWF=     76 Int=      0 D2E=      0 Chk=      6 Scr=      1
 Normal termination of Gaussian 16 at Mon Feb  5 16:01:25 2024.
